 Entering Gaussian System, Link 0=g09
 Initial command:
 /opt/shared/gaussian/g09/l1.exe "/cluster/kappa/90-days-archive/rajputlab/mbliss01/DHPS/Depro_DHPS/Gaussian/try2/Gau-19635.inp" -scrdir="/cluster/kappa/90-days-archive/rajputlab/mbliss01/DHPS/Depro_DHPS/Gaussian/try2/"
 Entering Link 1 = /opt/shared/gaussian/g09/l1.exe PID=     19636.
  
 Copyright (c) 1988,1990,1992,1993,1995,1998,2003,2009,2013,
            Gaussian, Inc.  All Rights Reserved.
  
 This is part of the Gaussian(R) 09 program.  It is based on
 the Gaussian(R) 03 system (copyright 2003, Gaussian, Inc.),
 the Gaussian(R) 98 system (copyright 1998, Gaussian, Inc.),
 the Gaussian(R) 94 system (copyright 1995, Gaussian, Inc.),
 the Gaussian 92(TM) system (copyright 1992, Gaussian, Inc.),
 the Gaussian 90(TM) system (copyright 1990, Gaussian, Inc.),
 the Gaussian 88(TM) system (copyright 1988, Gaussian, Inc.),
 the Gaussian 86(TM) system (copyright 1986, Carnegie Mellon
 University), and the Gaussian 82(TM) system (copyright 1983,
 Carnegie Mellon University). Gaussian is a federally registered
 trademark of Gaussian, Inc.
  
 This software contains proprietary and confidential information,
 including trade secrets, belonging to Gaussian, Inc.
  
 This software is provided under written license and may be
 used, copied, transmitted, or stored only in accord with that
 written license.
  
 The following legend is applicable only to US Government
 contracts under FAR:
  
                    RESTRICTED RIGHTS LEGEND
  
 Use, reproduction and disclosure by the US Government is
 subject to restrictions as set forth in subparagraphs (a)
 and (c) of the Commercial Computer Software - Restricted
 Rights clause in FAR 52.227-19.
  
 Gaussian, Inc.
 340 Quinnipiac St., Bldg. 40, Wallingford CT 06492
  
  
 ---------------------------------------------------------------
 Warning -- This program may not be used in any manner that
 competes with the business of Gaussian, Inc. or will provide
 assistance to any competitor of Gaussian, Inc.  The licensee
 of this program is prohibited from giving any competitor of
 Gaussian, Inc. access to this program.  By using this program,
 the user acknowledges that Gaussian, Inc. is engaged in the
 business of creating and licensing software in the field of
 computational chemistry and represents and warrants to the
 licensee that it is not a competitor of Gaussian, Inc. and that
 it will not use this program in any manner prohibited above.
 ---------------------------------------------------------------
  

 Cite this work as:
 Gaussian 09, Revision D.01,
 M. J. Frisch, G. W. Trucks, H. B. Schlegel, G. E. Scuseria, 
 M. A. Robb, J. R. Cheeseman, G. Scalmani, V. Barone, B. Mennucci, 
 G. A. Petersson, H. Nakatsuji, M. Caricato, X. Li, H. P. Hratchian, 
 A. F. Izmaylov, J. Bloino, G. Zheng, J. L. Sonnenberg, M. Hada, 
 M. Ehara, K. Toyota, R. Fukuda, J. Hasegawa, M. Ishida, T. Nakajima, 
 Y. Honda, O. Kitao, H. Nakai, T. Vreven, J. A. Montgomery, Jr., 
 J. E. Peralta, F. Ogliaro, M. Bearpark, J. J. Heyd, E. Brothers, 
 K. N. Kudin, V. N. Staroverov, T. Keith, R. Kobayashi, J. Normand, 
 K. Raghavachari, A. Rendell, J. C. Burant, S. S. Iyengar, J. Tomasi, 
 M. Cossi, N. Rega, J. M. Millam, M. Klene, J. E. Knox, J. B. Cross, 
 V. Bakken, C. Adamo, J. Jaramillo, R. Gomperts, R. E. Stratmann, 
 O. Yazyev, A. J. Austin, R. Cammi, C. Pomelli, J. W. Ochterski, 
 R. L. Martin, K. Morokuma, V. G. Zakrzewski, G. A. Voth, 
 P. Salvador, J. J. Dannenberg, S. Dapprich, A. D. Daniels, 
 O. Farkas, J. B. Foresman, J. V. Ortiz, J. Cioslowski, 
 and D. J. Fox, Gaussian, Inc., Wallingford CT, 2013.
 
 ******************************************
 Gaussian 09:  ES64L-G09RevD.01 24-Apr-2013
                29-Jul-2019 
 ******************************************
 %NProcShared=12
 Will use up to   12 processors via shared memory.
 %LindaWorker=localhost
 %chk=dhps_depro.chk
 SetLPE:  input flags=""
 SetLPE:    new flags=" -nodelist 'localhost'"
 Will use up to    1 processors via Linda.
 ----------------------------------------------------------------------
 #n B3LYP/6-31+G* Opt=(calcfc,tight) SCF=tight nosymm test freq iop(6/5
 0=1)
 ----------------------------------------------------------------------
 1/7=10,10=4,14=-1,18=20,19=15,26=3,38=1/1,3;
 2/9=110,12=2,15=1,17=6,18=5,40=1/2;
 3/5=1,6=6,7=11,11=2,16=1,25=1,30=1,71=2,74=-5,140=1/1,2,3;
 4//1;
 5/5=2,32=2,38=5/2;
 8/6=4,10=90,11=11/1;
 11/6=1,8=1,9=11,15=111,16=1,31=1/1,2,10;
 10/6=1,13=1,31=1/2;
 6/7=2,8=2,9=2,10=2,28=1,50=1/1;
 7/10=1,18=20,25=1,30=1/1,2,3,16;
 1/7=10,10=4,14=-1,18=20,19=15,26=3/3(2);
 2/9=110,15=1/2;
 99//99;
 2/9=110,15=1/2;
 3/5=1,6=6,7=11,11=2,16=1,25=1,30=1,71=1,74=-5/1,2,3;
 4/5=5,16=3,69=1/1;
 5/5=2,32=2,38=5/2;
 7/30=1/1,2,3,16;
 1/7=10,14=-1,18=20,19=15,26=3/3(-5);
 2/9=110,15=1/2;
 6/7=2,8=2,9=2,10=2,19=2,28=1,50=1/1;
 99/9=1/99;
 ----------
 DHPS_Depro
 ----------
 Symbolic Z-matrix:
 Charge = -3 Multiplicity = 1
 N                     0.83673  -1.14959   0.41662 
 N                     1.00525   1.58435  -0.18218 
 C                    -1.53025  -1.02153   0.2246 
 C                    -0.27145  -0.42423   0.17814 
 C                    -2.68402  -0.27396  -0.03136 
 C                    -2.59383   1.08527  -0.31924 
 C                    -0.17692   0.95337  -0.12293 
 C                    -1.33571   1.68349  -0.36423 
 C                     3.23514  -1.19578   0.59022 
 C                     2.04324  -0.51303   0.35687 
 C                     4.54728  -0.63339   0.55371 
 C                     2.12418   0.84877   0.05843 
 C                     4.62617   0.78344   0.24313 
 C                     3.38321   1.44039   0.01219 
 H                    -1.60875  -2.07929   0.45972 
 O                     5.7027    1.48837   0.159 
 H                    -3.4947    1.66269  -0.50508 
 H                    -1.24764   2.74188  -0.59026 
 H                     3.15863  -2.25711   0.82179 
 O                     5.54377  -1.41509   0.79548 
 O                    -4.64186  -1.23944  -1.36109 
 H                     3.4227    2.50284  -0.22212 
 S                    -4.32462  -1.03445   0.04984 
 O                    -4.1154   -2.25119   0.82863 
 O                    -5.12584  -0.01077   0.72012 
 

 GradGradGradGradGradGradGradGradGradGradGradGradGradGradGradGradGradGrad
 Berny optimization.
 Initialization pass.
                           ----------------------------
                           !    Initial Parameters    !
                           ! (Angstroms and Degrees)  !
 --------------------------                            --------------------------
 ! Name  Definition              Value          Derivative Info.                !
 --------------------------------------------------------------------------------
 ! R1    R(1,4)                  1.3458         calculate D2E/DX2 analytically  !
 ! R2    R(1,10)                 1.3654         calculate D2E/DX2 analytically  !
 ! R3    R(2,7)                  1.3413         calculate D2E/DX2 analytically  !
 ! R4    R(2,12)                 1.3605         calculate D2E/DX2 analytically  !
 ! R5    R(3,4)                  1.3941         calculate D2E/DX2 analytically  !
 ! R6    R(3,5)                  1.3984         calculate D2E/DX2 analytically  !
 ! R7    R(3,15)                 1.0864         calculate D2E/DX2 analytically  !
 ! R8    R(4,7)                  1.4133         calculate D2E/DX2 analytically  !
 ! R9    R(5,6)                  1.3923         calculate D2E/DX2 analytically  !
 ! R10   R(5,23)                 1.8101         calculate D2E/DX2 analytically  !
 ! R11   R(6,8)                  1.3938         calculate D2E/DX2 analytically  !
 ! R12   R(6,17)                 1.0861         calculate D2E/DX2 analytically  !
 ! R13   R(7,8)                  1.3907         calculate D2E/DX2 analytically  !
 ! R14   R(8,18)                 1.0858         calculate D2E/DX2 analytically  !
 ! R15   R(9,10)                 1.3933         calculate D2E/DX2 analytically  !
 ! R16   R(9,11)                 1.4281         calculate D2E/DX2 analytically  !
 ! R17   R(9,19)                 1.089          calculate D2E/DX2 analytically  !
 ! R18   R(10,12)                1.3965         calculate D2E/DX2 analytically  !
 ! R19   R(11,13)                1.4526         calculate D2E/DX2 analytically  !
 ! R20   R(11,20)                1.2894         calculate D2E/DX2 analytically  !
 ! R21   R(12,14)                1.3919         calculate D2E/DX2 analytically  !
 ! R22   R(13,14)                1.4247         calculate D2E/DX2 analytically  !
 ! R23   R(13,16)                1.2895         calculate D2E/DX2 analytically  !
 ! R24   R(14,22)                1.0887         calculate D2E/DX2 analytically  !
 ! R25   R(21,23)                1.4606         calculate D2E/DX2 analytically  !
 ! R26   R(23,24)                1.4597         calculate D2E/DX2 analytically  !
 ! R27   R(23,25)                1.4626         calculate D2E/DX2 analytically  !
 ! A1    A(4,1,10)             117.9421         calculate D2E/DX2 analytically  !
 ! A2    A(7,2,12)             117.5613         calculate D2E/DX2 analytically  !
 ! A3    A(4,3,5)              120.6534         calculate D2E/DX2 analytically  !
 ! A4    A(4,3,15)             119.3146         calculate D2E/DX2 analytically  !
 ! A5    A(5,3,15)             120.0318         calculate D2E/DX2 analytically  !
 ! A6    A(1,4,3)              120.4445         calculate D2E/DX2 analytically  !
 ! A7    A(1,4,7)              120.5346         calculate D2E/DX2 analytically  !
 ! A8    A(3,4,7)              119.0209         calculate D2E/DX2 analytically  !
 ! A9    A(3,5,6)              120.4167         calculate D2E/DX2 analytically  !
 ! A10   A(3,5,23)             120.9964         calculate D2E/DX2 analytically  !
 ! A11   A(6,5,23)             118.564          calculate D2E/DX2 analytically  !
 ! A12   A(5,6,8)              118.9562         calculate D2E/DX2 analytically  !
 ! A13   A(5,6,17)             120.0453         calculate D2E/DX2 analytically  !
 ! A14   A(8,6,17)             120.9985         calculate D2E/DX2 analytically  !
 ! A15   A(2,7,4)              121.796          calculate D2E/DX2 analytically  !
 ! A16   A(2,7,8)              118.6679         calculate D2E/DX2 analytically  !
 ! A17   A(4,7,8)              119.536          calculate D2E/DX2 analytically  !
 ! A18   A(6,8,7)              121.4115         calculate D2E/DX2 analytically  !
 ! A19   A(6,8,18)             119.8859         calculate D2E/DX2 analytically  !
 ! A20   A(7,8,18)             118.7025         calculate D2E/DX2 analytically  !
 ! A21   A(10,9,11)            126.0694         calculate D2E/DX2 analytically  !
 ! A22   A(10,9,19)            116.9425         calculate D2E/DX2 analytically  !
 ! A23   A(11,9,19)            116.9881         calculate D2E/DX2 analytically  !
 ! A24   A(1,10,9)             121.3397         calculate D2E/DX2 analytically  !
 ! A25   A(1,10,12)            121.0098         calculate D2E/DX2 analytically  !
 ! A26   A(9,10,12)            117.6505         calculate D2E/DX2 analytically  !
 ! A27   A(9,11,13)            116.0708         calculate D2E/DX2 analytically  !
 ! A28   A(9,11,20)            117.8116         calculate D2E/DX2 analytically  !
 ! A29   A(13,11,20)           126.1175         calculate D2E/DX2 analytically  !
 ! A30   A(2,12,10)            121.1561         calculate D2E/DX2 analytically  !
 ! A31   A(2,12,14)            120.5477         calculate D2E/DX2 analytically  !
 ! A32   A(10,12,14)           118.2962         calculate D2E/DX2 analytically  !
 ! A33   A(11,13,14)           115.914          calculate D2E/DX2 analytically  !
 ! A34   A(11,13,16)           126.3326         calculate D2E/DX2 analytically  !
 ! A35   A(14,13,16)           117.7535         calculate D2E/DX2 analytically  !
 ! A36   A(12,14,13)           125.9991         calculate D2E/DX2 analytically  !
 ! A37   A(12,14,22)           117.0499         calculate D2E/DX2 analytically  !
 ! A38   A(13,14,22)           116.951          calculate D2E/DX2 analytically  !
 ! A39   A(5,23,21)            102.2682         calculate D2E/DX2 analytically  !
 ! A40   A(5,23,24)            104.1363         calculate D2E/DX2 analytically  !
 ! A41   A(5,23,25)            102.886          calculate D2E/DX2 analytically  !
 ! A42   A(21,23,24)           115.4373         calculate D2E/DX2 analytically  !
 ! A43   A(21,23,25)           114.9573         calculate D2E/DX2 analytically  !
 ! A44   A(24,23,25)           114.6721         calculate D2E/DX2 analytically  !
 ! D1    D(10,1,4,3)           179.9578         calculate D2E/DX2 analytically  !
 ! D2    D(10,1,4,7)            -0.0427         calculate D2E/DX2 analytically  !
 ! D3    D(4,1,10,9)          -179.9375         calculate D2E/DX2 analytically  !
 ! D4    D(4,1,10,12)            0.0446         calculate D2E/DX2 analytically  !
 ! D5    D(12,2,7,4)             0.0419         calculate D2E/DX2 analytically  !
 ! D6    D(12,2,7,8)           179.9619         calculate D2E/DX2 analytically  !
 ! D7    D(7,2,12,10)           -0.0399         calculate D2E/DX2 analytically  !
 ! D8    D(7,2,12,14)          179.952          calculate D2E/DX2 analytically  !
 ! D9    D(5,3,4,1)           -179.5653         calculate D2E/DX2 analytically  !
 ! D10   D(5,3,4,7)              0.4352         calculate D2E/DX2 analytically  !
 ! D11   D(15,3,4,1)             0.2562         calculate D2E/DX2 analytically  !
 ! D12   D(15,3,4,7)          -179.7433         calculate D2E/DX2 analytically  !
 ! D13   D(4,3,5,6)             -0.8779         calculate D2E/DX2 analytically  !
 ! D14   D(4,3,5,23)          -179.1101         calculate D2E/DX2 analytically  !
 ! D15   D(15,3,5,6)           179.3018         calculate D2E/DX2 analytically  !
 ! D16   D(15,3,5,23)            1.0696         calculate D2E/DX2 analytically  !
 ! D17   D(1,4,7,2)             -0.0005         calculate D2E/DX2 analytically  !
 ! D18   D(1,4,7,8)           -179.9199         calculate D2E/DX2 analytically  !
 ! D19   D(3,4,7,2)            179.999          calculate D2E/DX2 analytically  !
 ! D20   D(3,4,7,8)              0.0796         calculate D2E/DX2 analytically  !
 ! D21   D(3,5,6,8)              0.7843         calculate D2E/DX2 analytically  !
 ! D22   D(3,5,6,17)          -179.249          calculate D2E/DX2 analytically  !
 ! D23   D(23,5,6,8)           179.059          calculate D2E/DX2 analytically  !
 ! D24   D(23,5,6,17)           -0.9743         calculate D2E/DX2 analytically  !
 ! D25   D(3,5,23,21)         -101.8185         calculate D2E/DX2 analytically  !
 ! D26   D(3,5,23,24)           18.7159         calculate D2E/DX2 analytically  !
 ! D27   D(3,5,23,25)          138.6628         calculate D2E/DX2 analytically  !
 ! D28   D(6,5,23,21)           79.9173         calculate D2E/DX2 analytically  !
 ! D29   D(6,5,23,24)         -159.5484         calculate D2E/DX2 analytically  !
 ! D30   D(6,5,23,25)          -39.6014         calculate D2E/DX2 analytically  !
 ! D31   D(5,6,8,7)             -0.2685         calculate D2E/DX2 analytically  !
 ! D32   D(5,6,8,18)           179.8182         calculate D2E/DX2 analytically  !
 ! D33   D(17,6,8,7)           179.7651         calculate D2E/DX2 analytically  !
 ! D34   D(17,6,8,18)           -0.1482         calculate D2E/DX2 analytically  !
 ! D35   D(2,7,8,6)            179.9158         calculate D2E/DX2 analytically  !
 ! D36   D(2,7,8,18)            -0.1699         calculate D2E/DX2 analytically  !
 ! D37   D(4,7,8,6)             -0.1624         calculate D2E/DX2 analytically  !
 ! D38   D(4,7,8,18)           179.752          calculate D2E/DX2 analytically  !
 ! D39   D(11,9,10,1)          179.9765         calculate D2E/DX2 analytically  !
 ! D40   D(11,9,10,12)          -0.0061         calculate D2E/DX2 analytically  !
 ! D41   D(19,9,10,1)           -0.0111         calculate D2E/DX2 analytically  !
 ! D42   D(19,9,10,12)        -179.9937         calculate D2E/DX2 analytically  !
 ! D43   D(10,9,11,13)           0.0181         calculate D2E/DX2 analytically  !
 ! D44   D(10,9,11,20)        -179.9799         calculate D2E/DX2 analytically  !
 ! D45   D(19,9,11,13)        -179.9944         calculate D2E/DX2 analytically  !
 ! D46   D(19,9,11,20)           0.0076         calculate D2E/DX2 analytically  !
 ! D47   D(1,10,12,2)           -0.0031         calculate D2E/DX2 analytically  !
 ! D48   D(1,10,12,14)        -179.9952         calculate D2E/DX2 analytically  !
 ! D49   D(9,10,12,2)          179.9796         calculate D2E/DX2 analytically  !
 ! D50   D(9,10,12,14)          -0.0125         calculate D2E/DX2 analytically  !
 ! D51   D(9,11,13,14)          -0.0108         calculate D2E/DX2 analytically  !
 ! D52   D(9,11,13,16)         179.9933         calculate D2E/DX2 analytically  !
 ! D53   D(20,11,13,14)        179.987          calculate D2E/DX2 analytically  !
 ! D54   D(20,11,13,16)         -0.0089         calculate D2E/DX2 analytically  !
 ! D55   D(2,12,14,13)        -179.9724         calculate D2E/DX2 analytically  !
 ! D56   D(2,12,14,22)           0.0159         calculate D2E/DX2 analytically  !
 ! D57   D(10,12,14,13)          0.0198         calculate D2E/DX2 analytically  !
 ! D58   D(10,12,14,22)       -179.992          calculate D2E/DX2 analytically  !
 ! D59   D(11,13,14,12)         -0.0073         calculate D2E/DX2 analytically  !
 ! D60   D(11,13,14,22)       -179.9956         calculate D2E/DX2 analytically  !
 ! D61   D(16,13,14,12)        179.989          calculate D2E/DX2 analytically  !
 ! D62   D(16,13,14,22)          0.0007         calculate D2E/DX2 analytically  !
 --------------------------------------------------------------------------------
 Trust Radius=3.00D-01 FncErr=1.00D-07 GrdErr=1.00D-06
 Number of steps in this run=    143 maximum allowed number of steps=    150.
 GradGradGradGradGradGradGradGradGradGradGradGradGradGradGradGradGradGrad

                          Input orientation:                          
 ---------------------------------------------------------------------
 Center     Atomic      Atomic             Coordinates (Angstroms)
 Number     Number       Type             X           Y           Z
 ---------------------------------------------------------------------
      1          7           0        0.836730   -1.149590    0.416620
      2          7           0        1.005250    1.584350   -0.182180
      3          6           0       -1.530250   -1.021530    0.224600
      4          6           0       -0.271450   -0.424230    0.178140
      5          6           0       -2.684020   -0.273960   -0.031360
      6          6           0       -2.593830    1.085270   -0.319240
      7          6           0       -0.176920    0.953370   -0.122930
      8          6           0       -1.335710    1.683490   -0.364230
      9          6           0        3.235140   -1.195780    0.590220
     10          6           0        2.043240   -0.513030    0.356870
     11          6           0        4.547280   -0.633390    0.553710
     12          6           0        2.124180    0.848770    0.058430
     13          6           0        4.626170    0.783440    0.243130
     14          6           0        3.383210    1.440390    0.012190
     15          1           0       -1.608750   -2.079290    0.459720
     16          8           0        5.702700    1.488370    0.159000
     17          1           0       -3.494700    1.662690   -0.505080
     18          1           0       -1.247640    2.741880   -0.590260
     19          1           0        3.158630   -2.257110    0.821790
     20          8           0        5.543770   -1.415090    0.795480
     21          8           0       -4.641860   -1.239440   -1.361090
     22          1           0        3.422700    2.502840   -0.222120
     23         16           0       -4.324620   -1.034450    0.049840
     24          8           0       -4.115400   -2.251190    0.828630
     25          8           0       -5.125840   -0.010770    0.720120
 ---------------------------------------------------------------------
                    Distance matrix (angstroms):
                    1          2          3          4          5
     1  N    0.000000
     2  N    2.803817   0.000000
     3  C    2.378206   3.658530   0.000000
     4  C    1.345765   2.407112   1.394096   0.000000
     5  C    3.655557   4.133615   1.398414   2.426307   0.000000
     6  C    4.159908   3.636103   2.421894   2.814147   1.392306
     7  C    2.396047   1.341332   2.419196   1.413280   2.792897
     8  C    3.654527   2.350120   2.775194   2.422663   2.400073
     9  C    2.405128   3.646661   4.782571   3.614038   6.022671
    10  C    1.365447   2.401458   3.611911   2.323278   4.749196
    11  C    3.748791   4.243334   6.098798   4.837867   7.263828
    12  C    2.404011   1.360506   4.108588   2.715493   4.938357
    13  C    4.257530   3.732748   6.415588   5.044737   7.391368
    14  C    3.654603   2.390230   5.499842   4.106201   6.304932
    15  H    2.616596   4.546129   1.086416   2.146365   2.157911
    16  O    5.541017   4.710802   7.656335   6.272868   8.571996
    17  H    5.245926   4.512200   3.405368   3.900175   2.152261
    18  H    4.527907   2.565525   3.860974   3.401123   3.386864
    19  H    2.604224   4.516837   4.885580   3.941977   6.228748
    20  O    4.729720   5.527262   7.107922   5.931247   8.347597
    21  O    5.760493   6.422886   3.499145   4.704708   2.556066
    22  H    4.520561   2.586365   6.095281   4.730189   6.711113
    23  S    5.175647   5.943018   2.799859   4.100856   1.810112
    24  O    5.089879   6.477203   2.925733   4.305447   2.588024
    25  O    6.077933   6.399126   3.767684   4.902019   2.568361
                    6          7          8          9         10
     6  C    0.000000
     7  C    2.428454   0.000000
     8  C    1.393828   1.390718   0.000000
     9  C    6.325124   4.095068   5.485785   0.000000
    10  C    4.951172   2.703636   4.094141   1.393279   0.000000
    11  C    7.396708   5.029286   6.389062   1.428050   2.514647
    12  C    4.739007   2.310605   3.584165   2.386884   1.396466
    13  C    7.248156   4.820016   6.059950   2.443921   2.892283
    14  C    5.996746   3.595827   4.740147   2.702857   2.393778
    15  H    3.404644   3.403916   3.861600   4.925535   3.975019
    16  O    8.320073   5.910638   7.060528   3.671439   4.175692
    17  H    1.086056   3.414211   2.163680   7.393327   6.012112
    18  H    2.151752   2.136260   1.085834   6.082271   4.724551
    19  H    6.750130   4.724994   6.093773   1.088990   2.121806
    20  O    8.585740   6.259343   7.633700   2.328090   3.641401
    21  O    3.268663   5.126124   4.524144   8.115211   6.940434
    22  H    6.182036   3.920199   4.830527   3.791420   3.366543
    23  S    2.761352   4.602683   4.061063   7.580766   6.396545
    24  O    3.842492   5.165878   4.962993   7.429749   6.416588
    25  O    2.948330   5.111957   4.290853   8.445538   7.195827
                   11         12         13         14         15
    11  C    0.000000
    12  C    2.883317   0.000000
    13  C    1.452615   2.509649   0.000000
    14  C    2.439030   1.391872   1.424734   0.000000
    15  H    6.324252   4.761233   6.864136   6.124385   0.000000
    16  O    2.447990   3.636620   1.289543   2.324627   8.141003
    17  H    8.430093   5.705420   8.202526   6.900915   4.300007
    18  H    6.803103   3.920948   6.247533   4.847844   4.947377
    19  H    2.153296   3.361443   3.425415   3.791753   4.784415
    20  O    1.289380   4.166761   2.445529   3.665423   7.191136
    21  O    9.406065   7.221839   9.620912   8.571414   3.635994
    22  H    3.420896   2.121511   2.149682   1.088697   6.839321
    23  S    8.895243   6.718155   9.135575   8.095486   2.938646
    24  O    8.816739   7.009659   9.271830   8.397826   2.539476
    25  O    9.694565   7.330718   9.795917   8.660887   4.088582
                   16         17         18         19         20
    16  O    0.000000
    17  H    9.222991   0.000000
    18  H    7.102106   2.494230   0.000000
    19  H    4.576047   7.835319   6.811681   0.000000
    20  O    2.976650   9.636292   8.082322   2.529542   0.000000
    21  O   10.805626   3.235906   5.288272   8.163839  10.412911
    22  H    2.524441   6.973976   4.690921   4.880226   4.569970
    23  S   10.340391   2.875981   4.913064   7.621669   9.903837
    24  O   10.527478   4.181209   5.930265   7.274036   9.695346
    25  O   10.946212   2.638598   4.933013   8.584219  10.761894
                   21         22         23         24         25
    21  O    0.000000
    22  H    8.963205   0.000000
    23  S    1.460611   8.520995   0.000000
    24  O    2.468941   8.973730   1.459707   0.000000
    25  O    2.464813   8.960111   1.462583   2.460131   0.000000
 Symmetry turned off by external request.
 Stoichiometry    C12H5N2O5S(3-)
 Framework group  C1[X(C12H5N2O5S)]
 Deg. of freedom    69
 Full point group                 C1      NOp   1
 Rotational constants (GHZ):      1.1444190      0.1296884      0.1191640
 Standard basis: 6-31+G(d) (6D, 7F)
   394 basis functions,   684 primitive gaussians,   394 cartesian basis functions
    75 alpha electrons       75 beta electrons
       nuclear repulsion energy      1553.6692745381 Hartrees.
 NAtoms=   25 NActive=   25 NUniq=   25 SFac= 1.00D+00 NAtFMM=   60 NAOKFM=F Big=F
 Integral buffers will be    131072 words long.
 Raffenetti 2 integral format.
 Two-electron integral symmetry is turned off.
 One-electron integrals computed using PRISM.
 PrsmSu:  requested number of processors reduced to:   9 ShMem   1 Linda.
 NBasis=   394 RedAO= T EigKep=  1.46D-06  NBF=   394
 NBsUse=   391 1.00D-06 EigRej=  6.72D-07 NBFU=   391
 ExpMin= 4.05D-02 ExpMax= 2.19D+04 ExpMxC= 3.30D+03 IAcc=2 IRadAn=         4 AccDes= 0.00D+00
 Harris functional with IExCor=  402 and IRadAn=       4 diagonalized for initial guess.
 HarFok:  IExCor=  402 AccDes= 0.00D+00 IRadAn=         4 IDoV= 1 UseB2=F ITyADJ=14
 ICtDFT=  3500011 ScaDFX=  1.000000  1.000000  1.000000  1.000000
 FoFCou: FMM=F IPFlag=           0 FMFlag=      100000 FMFlg1=           0
         NFxFlg=           0 DoJE=T BraDBF=F KetDBF=T FulRan=T
         wScrn=  0.000000 ICntrl=     500 IOpCl=  0 I1Cent=   200000004 NGrid=           0
         NMat0=    1 NMatS0=      1 NMatT0=    0 NMatD0=    1 NMtDS0=    0 NMtDT0=    0
 Symmetry not used in FoFCou.
 Requested convergence on RMS density matrix=1.00D-08 within 128 cycles.
 Requested convergence on MAX density matrix=1.00D-06.
 Requested convergence on             energy=1.00D-06.
 No special actions if energy rises.
 EnCoef did     5 forward-backward iterations
 Restarting incremental Fock formation.
 SCF Done:  E(RB3LYP) =  -1344.02111149     A.U. after   25 cycles
            NFock= 25  Conv=0.68D-09     -V/T= 2.0069
 DoSCS=F DFT=T ScalE2(SS,OS)=  1.000000  1.000000
 Range of M.O.s used for correlation:     1   391
 NBasis=   394 NAE=    75 NBE=    75 NFC=     0 NFV=     0
 NROrb=    391 NOA=    75 NOB=    75 NVA=   316 NVB=   316

 **** Warning!!: The largest alpha MO coefficient is  0.16363857D+03


 **** Warning!!: The smallest alpha delta epsilon is  0.98752245D-01

 PrsmSu:  requested number of processors reduced to:   8 ShMem   1 Linda.
 PrsmSu:  requested number of processors reduced to:   3 ShMem   1 Linda.
 Symmetrizing basis deriv contribution to polar:
 IMax=3 JMax=2 DiffMx= 0.00D+00
 G2DrvN: will do     1 centers at a time, making   26 passes.
 Calling FoFCou, ICntrl=  3107 FMM=F I1Cent=   0 AccDes= 0.00D+00.
 Calling FoFCou, ICntrl=  3107 FMM=F I1Cent=   0 AccDes= 0.00D+00.
 Calling FoFCou, ICntrl=  3107 FMM=F I1Cent=   0 AccDes= 0.00D+00.
 Calling FoFCou, ICntrl=  3107 FMM=F I1Cent=   0 AccDes= 0.00D+00.
 Calling FoFCou, ICntrl=  3107 FMM=F I1Cent=   0 AccDes= 0.00D+00.
 Calling FoFCou, ICntrl=  3107 FMM=F I1Cent=   0 AccDes= 0.00D+00.
 Calling FoFCou, ICntrl=  3107 FMM=F I1Cent=   0 AccDes= 0.00D+00.
 Calling FoFCou, ICntrl=  3107 FMM=F I1Cent=   0 AccDes= 0.00D+00.
 Calling FoFCou, ICntrl=  3107 FMM=F I1Cent=   0 AccDes= 0.00D+00.
 Calling FoFCou, ICntrl=  3107 FMM=F I1Cent=   0 AccDes= 0.00D+00.
 Calling FoFCou, ICntrl=  3107 FMM=F I1Cent=   0 AccDes= 0.00D+00.
 Calling FoFCou, ICntrl=  3107 FMM=F I1Cent=   0 AccDes= 0.00D+00.
 Calling FoFCou, ICntrl=  3107 FMM=F I1Cent=   0 AccDes= 0.00D+00.
 Calling FoFCou, ICntrl=  3107 FMM=F I1Cent=   0 AccDes= 0.00D+00.
 Calling FoFCou, ICntrl=  3107 FMM=F I1Cent=   0 AccDes= 0.00D+00.
 Calling FoFCou, ICntrl=  3107 FMM=F I1Cent=   0 AccDes= 0.00D+00.
 Calling FoFCou, ICntrl=  3107 FMM=F I1Cent=   0 AccDes= 0.00D+00.
 Calling FoFCou, ICntrl=  3107 FMM=F I1Cent=   0 AccDes= 0.00D+00.
 Calling FoFCou, ICntrl=  3107 FMM=F I1Cent=   0 AccDes= 0.00D+00.
 Calling FoFCou, ICntrl=  3107 FMM=F I1Cent=   0 AccDes= 0.00D+00.
 Calling FoFCou, ICntrl=  3107 FMM=F I1Cent=   0 AccDes= 0.00D+00.
 Calling FoFCou, ICntrl=  3107 FMM=F I1Cent=   0 AccDes= 0.00D+00.
 Calling FoFCou, ICntrl=  3107 FMM=F I1Cent=   0 AccDes= 0.00D+00.
 Calling FoFCou, ICntrl=  3107 FMM=F I1Cent=   0 AccDes= 0.00D+00.
 Calling FoFCou, ICntrl=  3107 FMM=F I1Cent=   0 AccDes= 0.00D+00.
 Calling FoFCou, ICntrl=  3107 FMM=F I1Cent=   0 AccDes= 0.00D+00.
 End of G2Drv F.D. properties file   721 does not exist.
 End of G2Drv F.D. properties file   722 does not exist.
 End of G2Drv F.D. properties file   788 does not exist.
          IDoAtm=1111111111111111111111111
          Differentiating once with respect to nuclear coordinates.
          There are    78 degrees of freedom in the 1st order CPHF.  IDoFFX=6 NUNeed=     0.
     75 vectors produced by pass  0 Test12= 3.04D-14 1.28D-09 XBig12= 4.01D-01 2.42D-01.
 AX will form    12 AO Fock derivatives at one time.
     75 vectors produced by pass  1 Test12= 3.04D-14 1.28D-09 XBig12= 7.38D-02 6.58D-02.
     75 vectors produced by pass  2 Test12= 3.04D-14 1.28D-09 XBig12= 1.03D-03 5.82D-03.
     75 vectors produced by pass  3 Test12= 3.04D-14 1.28D-09 XBig12= 1.01D-05 3.82D-04.
     75 vectors produced by pass  4 Test12= 3.04D-14 1.28D-09 XBig12= 5.95D-08 3.23D-05.
     75 vectors produced by pass  5 Test12= 3.04D-14 1.28D-09 XBig12= 2.15D-10 1.44D-06.
     75 vectors produced by pass  6 Test12= 3.04D-14 1.28D-09 XBig12= 8.31D-12 3.24D-07.
     73 vectors produced by pass  7 Test12= 3.04D-14 1.28D-09 XBig12= 7.31D-13 6.08D-08.
     68 vectors produced by pass  8 Test12= 3.04D-14 1.28D-09 XBig12= 3.97D-14 1.46D-08.
     66 vectors produced by pass  9 Test12= 3.04D-14 1.28D-09 XBig12= 5.31D-14 1.49D-08.
     60 vectors produced by pass 10 Test12= 3.04D-14 1.28D-09 XBig12= 1.86D-14 9.98D-09.
     49 vectors produced by pass 11 Test12= 3.04D-14 1.28D-09 XBig12= 1.66D-14 9.15D-09.
     43 vectors produced by pass 12 Test12= 3.04D-14 1.28D-09 XBig12= 9.82D-15 6.50D-09.
     41 vectors produced by pass 13 Test12= 3.04D-14 1.28D-09 XBig12= 1.16D-14 6.73D-09.
     34 vectors produced by pass 14 Test12= 3.04D-14 1.28D-09 XBig12= 5.05D-15 3.97D-09.
     33 vectors produced by pass 15 Test12= 3.04D-14 1.28D-09 XBig12= 7.16D-15 5.04D-09.
     25 vectors produced by pass 16 Test12= 3.04D-14 1.28D-09 XBig12= 4.46D-15 4.05D-09.
     22 vectors produced by pass 17 Test12= 3.04D-14 1.28D-09 XBig12= 3.50D-15 3.80D-09.
     22 vectors produced by pass 18 Test12= 3.04D-14 1.28D-09 XBig12= 5.72D-15 4.11D-09.
     14 vectors produced by pass 19 Test12= 3.04D-14 1.28D-09 XBig12= 2.13D-15 2.55D-09.
     14 vectors produced by pass 20 Test12= 3.04D-14 1.28D-09 XBig12= 4.15D-15 3.88D-09.
     11 vectors produced by pass 21 Test12= 3.04D-14 1.28D-09 XBig12= 1.96D-15 2.53D-09.
      9 vectors produced by pass 22 Test12= 3.04D-14 1.28D-09 XBig12= 2.07D-15 2.48D-09.
      2 vectors produced by pass 23 Test12= 3.04D-14 1.28D-09 XBig12= 9.21D-16 2.10D-09.
 InvSVY:  IOpt=1 It=  1 EMax= 1.55D-15
 Solved reduced A of dimension  1111 with    78 vectors.
 End of Minotr F.D. properties file   721 does not exist.
 End of Minotr F.D. properties file   722 does not exist.
 End of Minotr F.D. properties file   788 does not exist.

 **********************************************************************

            Population analysis using the SCF density.

 **********************************************************************

 Alpha  occ. eigenvalues --  -88.76939 -18.79750 -18.79688 -18.79638 -18.75559
 Alpha  occ. eigenvalues --  -18.75530 -13.98751 -13.98606  -9.89362  -9.89321
 Alpha  occ. eigenvalues --   -9.88353  -9.88303  -9.87758  -9.87701  -9.87430
 Alpha  occ. eigenvalues --   -9.87213  -9.86778  -9.86220  -9.81776  -9.81763
 Alpha  occ. eigenvalues --   -7.79135  -5.75627  -5.75617  -5.75489  -0.79479
 Alpha  occ. eigenvalues --   -0.65697  -0.65619  -0.64220  -0.62935  -0.61543
 Alpha  occ. eigenvalues --   -0.55328  -0.52728  -0.47209  -0.42430  -0.40058
 Alpha  occ. eigenvalues --   -0.36924  -0.33012  -0.29666  -0.27834  -0.25385
 Alpha  occ. eigenvalues --   -0.24776  -0.20341  -0.19140  -0.16516  -0.15421
 Alpha  occ. eigenvalues --   -0.13047  -0.12745  -0.12514  -0.11058  -0.10358
 Alpha  occ. eigenvalues --   -0.09836  -0.08069  -0.07256  -0.05979  -0.05384
 Alpha  occ. eigenvalues --   -0.04725  -0.02705  -0.02426  -0.02298  -0.01304
 Alpha  occ. eigenvalues --   -0.01261  -0.00176   0.01832   0.02542   0.02709
 Alpha  occ. eigenvalues --    0.04055   0.04725   0.05981   0.06841   0.08586
 Alpha  occ. eigenvalues --    0.09567   0.10006   0.12496   0.15322   0.16184
 Alpha virt. eigenvalues --    0.26060   0.27077   0.29305   0.30176   0.30683
 Alpha virt. eigenvalues --    0.31127   0.31263   0.31735   0.32401   0.32465
 Alpha virt. eigenvalues --    0.32628   0.33165   0.33819   0.34230   0.35005
 Alpha virt. eigenvalues --    0.35762   0.36291   0.36946   0.37643   0.37903
 Alpha virt. eigenvalues --    0.38132   0.38467   0.39001   0.39520   0.41135
 Alpha virt. eigenvalues --    0.41242   0.41469   0.41868   0.42094   0.42350
 Alpha virt. eigenvalues --    0.43000   0.43552   0.43597   0.44455   0.44748
 Alpha virt. eigenvalues --    0.45573   0.45681   0.46010   0.46853   0.47611
 Alpha virt. eigenvalues --    0.48111   0.48306   0.48711   0.49399   0.49651
 Alpha virt. eigenvalues --    0.49939   0.50629   0.50978   0.51503   0.52545
 Alpha virt. eigenvalues --    0.52857   0.53339   0.53649   0.53775   0.53980
 Alpha virt. eigenvalues --    0.54635   0.54911   0.55174   0.55431   0.55500
 Alpha virt. eigenvalues --    0.55840   0.56079   0.56740   0.57374   0.57821
 Alpha virt. eigenvalues --    0.58217   0.58647   0.58879   0.59288   0.59811
 Alpha virt. eigenvalues --    0.59930   0.60371   0.60703   0.60998   0.61235
 Alpha virt. eigenvalues --    0.61527   0.62052   0.62276   0.62672   0.63443
 Alpha virt. eigenvalues --    0.63944   0.64501   0.65253   0.65375   0.65660
 Alpha virt. eigenvalues --    0.66127   0.66713   0.67335   0.67632   0.68563
 Alpha virt. eigenvalues --    0.68985   0.69623   0.70181   0.70868   0.71446
 Alpha virt. eigenvalues --    0.72205   0.72989   0.73498   0.75284   0.76365
 Alpha virt. eigenvalues --    0.76985   0.78568   0.78933   0.80341   0.84483
 Alpha virt. eigenvalues --    0.85270   0.86328   0.88142   0.91499   0.95311
 Alpha virt. eigenvalues --    0.96464   0.97046   0.98245   0.99744   1.00064
 Alpha virt. eigenvalues --    1.01360   1.01986   1.03498   1.04161   1.04634
 Alpha virt. eigenvalues --    1.04753   1.07017   1.07307   1.07929   1.08089
 Alpha virt. eigenvalues --    1.08688   1.09149   1.10473   1.14820   1.15646
 Alpha virt. eigenvalues --    1.16314   1.17115   1.19655   1.20308   1.20872
 Alpha virt. eigenvalues --    1.21586   1.22822   1.23504   1.23641   1.25522
 Alpha virt. eigenvalues --    1.27667   1.29424   1.30399   1.32053   1.32630
 Alpha virt. eigenvalues --    1.33223   1.33407   1.36283   1.37773   1.39011
 Alpha virt. eigenvalues --    1.40678   1.42869   1.43833   1.44788   1.45062
 Alpha virt. eigenvalues --    1.46725   1.47146   1.47464   1.49562   1.49604
 Alpha virt. eigenvalues --    1.52118   1.53368   1.54713   1.55215   1.56126
 Alpha virt. eigenvalues --    1.56729   1.57815   1.58306   1.59647   1.59982
 Alpha virt. eigenvalues --    1.60788   1.61385   1.61799   1.63268   1.63893
 Alpha virt. eigenvalues --    1.63965   1.65413   1.65643   1.66344   1.66694
 Alpha virt. eigenvalues --    1.67564   1.67767   1.68287   1.69295   1.70002
 Alpha virt. eigenvalues --    1.71533   1.72340   1.72928   1.73648   1.73691
 Alpha virt. eigenvalues --    1.74796   1.75430   1.77022   1.77537   1.79418
 Alpha virt. eigenvalues --    1.80177   1.81051   1.81268   1.82858   1.83550
 Alpha virt. eigenvalues --    1.86247   1.87892   1.88557   1.96346   2.00051
 Alpha virt. eigenvalues --    2.00211   2.06745   2.09133   2.11682   2.12042
 Alpha virt. eigenvalues --    2.12977   2.13273   2.13502   2.14357   2.16368
 Alpha virt. eigenvalues --    2.16478   2.16969   2.18199   2.18563   2.19379
 Alpha virt. eigenvalues --    2.19752   2.19980   2.20663   2.22213   2.22841
 Alpha virt. eigenvalues --    2.25375   2.26574   2.26771   2.28855   2.29612
 Alpha virt. eigenvalues --    2.29942   2.31147   2.31926   2.32211   2.32545
 Alpha virt. eigenvalues --    2.35913   2.36441   2.39314   2.39350   2.39799
 Alpha virt. eigenvalues --    2.40400   2.41659   2.42988   2.45965   2.48545
 Alpha virt. eigenvalues --    2.50169   2.52768   2.53722   2.55507   2.57633
 Alpha virt. eigenvalues --    2.58478   2.58697   2.61503   2.63629   2.64752
 Alpha virt. eigenvalues --    2.65775   2.67747   2.69574   2.71266   2.75081
 Alpha virt. eigenvalues --    2.75558   2.77424   2.79020   2.80056   2.80230
 Alpha virt. eigenvalues --    2.89475   2.91159   2.93476   2.95875   3.01932
 Alpha virt. eigenvalues --    3.02597   3.04817   3.05374   3.07364   3.09541
 Alpha virt. eigenvalues --    3.10115   3.11672   3.12988   3.17717   3.21172
 Alpha virt. eigenvalues --    3.22871   3.25430   3.28532   3.30158   3.32267
 Alpha virt. eigenvalues --    3.34331   3.37653   3.37982   3.41061   3.45982
 Alpha virt. eigenvalues --    3.46826   3.55905   3.59993   3.73075   3.86240
 Alpha virt. eigenvalues --    3.90891   4.34249   4.45535   4.51363   4.53176
 Alpha virt. eigenvalues --    4.54384   4.62568   4.66271   4.70340   4.72352
 Alpha virt. eigenvalues --    4.73503   4.74321   4.76950   4.79928   4.84992
 Alpha virt. eigenvalues --    4.85918   4.88282   5.05259   5.08491   5.32379
 Alpha virt. eigenvalues --    5.56706
          Condensed to atoms (all electrons):
               1          2          3          4          5          6
     1  N    7.622346  -0.053921  -0.175080  -0.354393   0.402375   0.054769
     2  N   -0.053921   7.633421   0.075961  -0.046264   0.056242   0.246519
     3  C   -0.175080   0.075961  19.111849   0.567555  -4.289173  -8.311397
     4  C   -0.354393  -0.046264   0.567555  21.771371  -4.492292  -4.406850
     5  C    0.402375   0.056242  -4.289173  -4.492292  25.311957  -1.927197
     6  C    0.054769   0.246519  -8.311397  -4.406850  -1.927197  25.270320
     7  C    0.135546  -0.034130   0.610387  -3.094062  -2.218017  -1.928354
     8  C    0.085239  -0.225401  -2.020871  -0.452836  -1.041641  -4.135941
     9  C   -0.111568  -0.000046   1.035677  -2.715626  -0.723177  -0.461533
    10  C   -0.446244   0.219013   0.819200   2.600652  -0.795885   0.255059
    11  C    0.089479  -0.018525  -0.076748   0.398436   0.057476   0.015969
    12  C    0.093566  -0.572876  -1.435332   1.278003  -1.116682   0.110989
    13  C   -0.050499   0.099278  -0.152580   0.488582   0.013087  -0.020561
    14  C    0.131827   0.087596   1.004920  -4.510697   0.040739  -0.195946
    15  H   -0.010919  -0.000968   0.361070   0.060767  -0.188812   0.009156
    16  O    0.001540  -0.001415  -0.001232  -0.000056  -0.000055  -0.000163
    17  H    0.000296  -0.000140  -0.027720   0.013179   0.004515   0.408310
    18  H   -0.000892  -0.022078  -0.021145   0.035931   0.027997  -0.143716
    19  H   -0.019334  -0.000624  -0.004660   0.024976   0.003668   0.000099
    20  O   -0.001190   0.001621   0.001823   0.003071   0.000168   0.000054
    21  O    0.000172  -0.000313  -0.044467  -0.022316   0.167901  -0.083470
    22  H   -0.000771  -0.020338  -0.001673   0.022683   0.001181  -0.001907
    23  S    0.025567   0.002175  -0.827560  -1.516320  -1.351342   1.306020
    24  O    0.000067  -0.000067   0.118077  -0.089366  -0.477622   0.039170
    25  O   -0.000063   0.000037   0.054402  -0.043054  -0.123581  -0.289137
               7          8          9         10         11         12
     1  N    0.135546   0.085239  -0.111568  -0.446244   0.089479   0.093566
     2  N   -0.034130  -0.225401  -0.000046   0.219013  -0.018525  -0.572876
     3  C    0.610387  -2.020871   1.035677   0.819200  -0.076748  -1.435332
     4  C   -3.094062  -0.452836  -2.715626   2.600652   0.398436   1.278003
     5  C   -2.218017  -1.041641  -0.723177  -0.795885   0.057476  -1.116682
     6  C   -1.928354  -4.135941  -0.461533   0.255059   0.015969   0.110989
     7  C   18.386415  -4.748716   0.640840  -3.591746  -0.075253   0.077042
     8  C   -4.748716  19.144733   0.360872  -1.309575  -0.098033  -0.182791
     9  C    0.640840   0.360872  32.751455 -15.486410  -3.133472 -13.083002
    10  C   -3.591746  -1.309575 -15.486410  24.839860   2.200115   4.731141
    11  C   -0.075253  -0.098033  -3.133472   2.200115  11.569349   2.592832
    12  C    0.077042  -0.182791 -13.083002   4.731141   2.592832  33.044401
    13  C   -0.030569  -0.091863  -7.842771   2.415482  -1.312598   4.907728
    14  C    1.440894   0.635214  15.992624 -10.916921  -7.124456 -25.223017
    15  H    0.150434  -0.072572  -0.001672  -0.024779   0.000428   0.002150
    16  O    0.005413   0.001315   0.087701  -0.145186  -0.217890   0.168959
    17  H   -0.038645  -0.094620  -0.000151   0.001828  -0.000002  -0.001292
    18  H    0.107620   0.320482  -0.002649  -0.003652   0.000044  -0.018587
    19  H    0.004647  -0.002350   0.090213   0.151747   0.013545   0.116898
    20  O   -0.008077  -0.001201  -0.651516   0.105608   0.878473  -0.148245
    21  O    0.026434  -0.076743  -0.000159  -0.002051  -0.000006  -0.001548
    22  H    0.013808  -0.010754  -0.094869   0.091027   0.009930   0.172540
    23  S   -0.270962   0.545627   0.038356  -0.175662  -0.001604  -0.112754
    24  O    0.027211   0.067080   0.000889  -0.013025  -0.000080  -0.002122
    25  O   -0.036203   0.159316   0.000195  -0.004112  -0.000005  -0.002724
              13         14         15         16         17         18
     1  N   -0.050499   0.131827  -0.010919   0.001540   0.000296  -0.000892
     2  N    0.099278   0.087596  -0.000968  -0.001415  -0.000140  -0.022078
     3  C   -0.152580   1.004920   0.361070  -0.001232  -0.027720  -0.021145
     4  C    0.488582  -4.510697   0.060767  -0.000056   0.013179   0.035931
     5  C    0.013087   0.040739  -0.188812  -0.000055   0.004515   0.027997
     6  C   -0.020561  -0.195946   0.009156  -0.000163   0.408310  -0.143716
     7  C   -0.030569   1.440894   0.150434   0.005413  -0.038645   0.107620
     8  C   -0.091863   0.635214  -0.072572   0.001315  -0.094620   0.320482
     9  C   -7.842771  15.992624  -0.001672   0.087701  -0.000151  -0.002649
    10  C    2.415482 -10.916921  -0.024779  -0.145186   0.001828  -0.003652
    11  C   -1.312598  -7.124456   0.000428  -0.217890  -0.000002   0.000044
    12  C    4.907728 -25.223017   0.002150   0.168959  -0.001292  -0.018587
    13  C   13.178008  -6.539397   0.000049   0.879888   0.000008  -0.000395
    14  C   -6.539397  42.603367  -0.000794  -0.724372   0.000766  -0.010696
    15  H    0.000049  -0.000794   0.528400   0.000000  -0.000169   0.000017
    16  O    0.879888  -0.724372   0.000000   8.672821   0.000000   0.000000
    17  H    0.000008   0.000766  -0.000169   0.000000   0.565367  -0.005059
    18  H   -0.000395  -0.010696   0.000017   0.000000  -0.005059   0.599740
    19  H    0.016057  -0.102107   0.000005  -0.000552   0.000000   0.000000
    20  O   -0.245883   0.120098   0.000000  -0.000191   0.000000   0.000000
    21  O   -0.000017   0.000769   0.001086   0.000000   0.002715   0.000069
    22  H    0.057062   0.053415   0.000000  -0.013019   0.000000   0.000006
    23  S   -0.002232   0.049009  -0.003096  -0.000003   0.008897   0.004960
    24  O   -0.000025   0.000325   0.001178   0.000000   0.000411   0.000056
    25  O   -0.000003   0.000197   0.000716   0.000000   0.003993   0.000165
              19         20         21         22         23         24
     1  N   -0.019334  -0.001190   0.000172  -0.000771   0.025567   0.000067
     2  N   -0.000624   0.001621  -0.000313  -0.020338   0.002175  -0.000067
     3  C   -0.004660   0.001823  -0.044467  -0.001673  -0.827560   0.118077
     4  C    0.024976   0.003071  -0.022316   0.022683  -1.516320  -0.089366
     5  C    0.003668   0.000168   0.167901   0.001181  -1.351342  -0.477622
     6  C    0.000099   0.000054  -0.083470  -0.001907   1.306020   0.039170
     7  C    0.004647  -0.008077   0.026434   0.013808  -0.270962   0.027211
     8  C   -0.002350  -0.001201  -0.076743  -0.010754   0.545627   0.067080
     9  C    0.090213  -0.651516  -0.000159  -0.094869   0.038356   0.000889
    10  C    0.151747   0.105608  -0.002051   0.091027  -0.175662  -0.013025
    11  C    0.013545   0.878473  -0.000006   0.009930  -0.001604  -0.000080
    12  C    0.116898  -0.148245  -0.001548   0.172540  -0.112754  -0.002122
    13  C    0.016057  -0.245883  -0.000017   0.057062  -0.002232  -0.000025
    14  C   -0.102107   0.120098   0.000769   0.053415   0.049009   0.000325
    15  H    0.000005   0.000000   0.001086   0.000000  -0.003096   0.001178
    16  O   -0.000552  -0.000191   0.000000  -0.013019  -0.000003   0.000000
    17  H    0.000000   0.000000   0.002715   0.000000   0.008897   0.000411
    18  H    0.000000   0.000000   0.000069   0.000006   0.004960   0.000056
    19  H    0.587422  -0.013036   0.000000   0.000007   0.000057   0.000000
    20  O   -0.013036   8.667613   0.000000  -0.000572  -0.000009   0.000000
    21  O    0.000000   0.000000   8.758566   0.000000   0.196905  -0.132776
    22  H    0.000007  -0.000572   0.000000   0.592233   0.000011   0.000000
    23  S    0.000057  -0.000009   0.196905   0.000011  15.763551   0.253228
    24  O    0.000000   0.000000  -0.132776   0.000000   0.253228   8.992616
    25  O    0.000000   0.000000  -0.172018   0.000000   0.256558  -0.076020
              25
     1  N   -0.000063
     2  N    0.000037
     3  C    0.054402
     4  C   -0.043054
     5  C   -0.123581
     6  C   -0.289137
     7  C   -0.036203
     8  C    0.159316
     9  C    0.000195
    10  C   -0.004112
    11  C   -0.000005
    12  C   -0.002724
    13  C   -0.000003
    14  C    0.000197
    15  H    0.000716
    16  O    0.000000
    17  H    0.003993
    18  H    0.000165
    19  H    0.000000
    20  O    0.000000
    21  O   -0.172018
    22  H    0.000000
    23  S    0.256558
    24  O   -0.076020
    25  O    8.932242
 Mulliken charges:
               1
     1  N   -0.417915
     2  N   -0.424757
     3  C   -0.371282
     4  C    0.478926
     5  C   -1.341830
     6  C    0.189735
     7  C    0.448044
     8  C   -0.753968
     9  C   -0.690201
    10  C    0.484512
    11  C    0.232595
    12  C    0.604721
    13  C    0.234164
    14  C   -0.813359
    15  H    0.188324
    16  O   -0.713503
    17  H    0.157512
    18  H    0.131780
    19  H    0.133321
    20  O   -0.708608
    21  O   -0.618731
    22  H    0.130002
    23  S    1.810625
    24  O   -0.709207
    25  O   -0.660901
 Sum of Mulliken charges =  -3.00000
 Mulliken charges with hydrogens summed into heavy atoms:
               1
     1  N   -0.417915
     2  N   -0.424757
     3  C   -0.182958
     4  C    0.478926
     5  C   -1.341830
     6  C    0.347248
     7  C    0.448044
     8  C   -0.622188
     9  C   -0.556880
    10  C    0.484512
    11  C    0.232595
    12  C    0.604721
    13  C    0.234164
    14  C   -0.683357
    16  O   -0.713503
    20  O   -0.708608
    21  O   -0.618731
    23  S    1.810625
    24  O   -0.709207
    25  O   -0.660901
 APT charges:
               1
     1  N   -0.546369
     2  N   -0.493809
     3  C   -0.282447
     4  C    0.024950
     5  C   -2.582940
     6  C    0.249175
     7  C   -0.189253
     8  C   -0.196636
     9  C    0.253576
    10  C   -0.269133
    11  C   -0.394076
    12  C   -0.288875
    13  C   -0.440120
    14  C    0.119922
    15  H    0.522322
    16  O   -0.468026
    17  H    0.719282
    18  H    0.498292
    19  H    0.436265
    20  O   -0.487916
    21  O   -0.362720
    22  H    0.492989
    23  S    1.390998
    24  O   -0.458832
    25  O   -0.246619
 Sum of APT charges =  -3.00000
 APT charges with hydrogens summed into heavy atoms:
               1
     1  N   -0.546369
     2  N   -0.493809
     3  C    0.239874
     4  C    0.024950
     5  C   -2.582940
     6  C    0.968456
     7  C   -0.189253
     8  C    0.301657
     9  C    0.689841
    10  C   -0.269133
    11  C   -0.394076
    12  C   -0.288875
    13  C   -0.440120
    14  C    0.612911
    16  O   -0.468026
    20  O   -0.487916
    21  O   -0.362720
    23  S    1.390998
    24  O   -0.458832
    25  O   -0.246619
 Electronic spatial extent (au):  <R**2>=           8364.2535
 Charge=             -3.0000 electrons
 Dipole moment (field-independent basis, Debye):
    X=             -8.7222    Y=              4.2302    Z=             -3.0506  Tot=             10.1625
 Quadrupole moment (field-independent basis, Debye-Ang):
   XX=           -438.4775   YY=           -173.0366   ZZ=           -143.4918
   XY=            -29.5557   XZ=            -14.3389   YZ=              5.6626
 Traceless Quadrupole moment (field-independent basis, Debye-Ang):
   XX=           -186.8089   YY=             78.6321   ZZ=            108.1768
   XY=            -29.5557   XZ=            -14.3389   YZ=              5.6626
 Octapole moment (field-independent basis, Debye-Ang**2):
  XXX=           -490.9580  YYY=             61.1134  ZZZ=            -47.8189  XYY=            -47.7403
  XXY=            112.5562  XXZ=           -110.6889  XZZ=             21.1269  YZZ=             27.1747
  YYZ=            -30.7833  XYZ=             23.5488
 Hexadecapole moment (field-independent basis, Debye-Ang**3):
 XXXX=         -19106.1068 YYYY=          -1541.6822 ZZZZ=           -390.7471 XXXY=          -1100.2477
 XXXZ=           -687.3269 YYYX=           -632.6834 YYYZ=            124.5524 ZZZX=           -263.1136
 ZZZY=             99.5640 XXYY=          -2655.8143 XXZZ=          -1998.8598 YYZZ=           -327.0280
 XXYZ=            105.7432 YYXZ=            -90.3799 ZZXY=           -187.6693
 N-N= 1.553669274538D+03 E-N=-6.316937808353D+03  KE= 1.334870364368D+03
  Exact polarizability:   0.000   0.000   0.000   0.000   0.000   0.000
 Approx polarizability: 995.476 -25.028 357.697  61.477 -36.434 214.634
 PrsmSu:  requested number of processors reduced to:   9 ShMem   1 Linda.
 PrsmSu:  requested number of processors reduced to:   9 ShMem   1 Linda.
 Calling FoFJK, ICntrl=    100147 FMM=F ISym2X=0 I1Cent= 0 IOpClX= 0 NMat=1 NMatS=1 NMatT=0.
 CoulSu:  requested number of processors reduced to:   9 ShMem   1 Linda.
 -------------------------------------------------------------------
 Center     Atomic                   Forces (Hartrees/Bohr)
 Number     Number              X              Y              Z
 -------------------------------------------------------------------
      1        7           0.019374079   -0.007800199    0.003132832
      2        7           0.021616519    0.005311184    0.000449204
      3        6          -0.027487450   -0.002827595   -0.002979658
      4        6           0.011075005   -0.009354736    0.002145449
      5        6           0.004967963   -0.019595097    0.011155889
      6        6           0.009991295    0.015846854   -0.004873892
      7        6           0.010021670    0.012573193   -0.001942314
      8        6          -0.030907188    0.007800146   -0.004553993
      9        6           0.005797414   -0.008888599    0.002395230
     10        6          -0.021220476   -0.050740736    0.009894471
     11        6          -0.002223594   -0.058492380    0.012901037
     12        6          -0.012663001    0.052858718   -0.012795080
     13        6           0.004607940    0.057671244   -0.012530732
     14        6           0.007716820    0.007706338   -0.001153654
     15        1           0.000149243    0.000606487    0.000777924
     16        8           0.002599083   -0.018125847    0.004213322
     17        1          -0.000673060    0.000295462    0.000656257
     18        1           0.002593990    0.003096231   -0.000448053
     19        1           0.001913026   -0.000592237    0.000295280
     20        8           0.003680229    0.017915303   -0.003740103
     21        8          -0.025609551   -0.012574290   -0.041284283
     22        1           0.001657430    0.000766169   -0.000086413
     23       16           0.057222658    0.023109204    0.000649799
     24        8          -0.007702188   -0.039433977    0.020024420
     25        8          -0.036497856    0.022869160    0.017697060
 -------------------------------------------------------------------
 Cartesian Forces:  Max     0.058492380 RMS     0.019647116
 FormGI is forming the generalized inverse of G from B-inverse, IUseBI=4.

 GradGradGradGradGradGradGradGradGradGradGradGradGradGradGradGradGradGrad
 Berny optimization.
 Internal  Forces:  Max     0.060461137 RMS     0.012706867
 Search for a local minimum.
 Step number   1 out of a maximum of  143
 All quantities printed in internal units (Hartrees-Bohrs-Radians)
 Mixed Optimization -- RFO/linear search
 Second derivative matrix not updated -- analytic derivatives used.
 ITU=  0
     Eigenvalues ---   -0.00039   0.00532   0.01010   0.01416   0.01516
     Eigenvalues ---    0.01573   0.01722   0.01727   0.01764   0.01945
     Eigenvalues ---    0.02039   0.02063   0.02180   0.02442   0.02584
     Eigenvalues ---    0.02727   0.02966   0.03084   0.04230   0.04493
     Eigenvalues ---    0.10561   0.10776   0.10944   0.11095   0.12094
     Eigenvalues ---    0.16843   0.16923   0.17262   0.18186   0.19002
     Eigenvalues ---    0.19613   0.20043   0.20232   0.20726   0.21351
     Eigenvalues ---    0.21971   0.22345   0.23031   0.24142   0.25015
     Eigenvalues ---    0.26224   0.30129   0.30489   0.31356   0.33341
     Eigenvalues ---    0.34307   0.34850   0.34924   0.35775   0.35873
     Eigenvalues ---    0.36221   0.36395   0.36423   0.39712   0.39932
     Eigenvalues ---    0.43597   0.44127   0.45884   0.48347   0.48788
     Eigenvalues ---    0.50546   0.52779   0.56674   0.57352   0.58823
     Eigenvalues ---    0.60732   0.61014   0.61741   0.65126
 RFO step:  Lambda=-4.28608169D-02 EMin=-3.93175084D-04
 Linear search not attempted -- first point.
 Maximum step size (   0.300) exceeded in Quadratic search.
    -- Step size scaled by   0.909
 Iteration  1 RMS(Cart)=  0.08643506 RMS(Int)=  0.03871012
 Iteration  2 RMS(Cart)=  0.07108445 RMS(Int)=  0.00538413
 Iteration  3 RMS(Cart)=  0.00554255 RMS(Int)=  0.00024034
 Iteration  4 RMS(Cart)=  0.00002231 RMS(Int)=  0.00024007
 Iteration  5 RMS(Cart)=  0.00000004 RMS(Int)=  0.00024007
 Variable       Old X    -DE/DX   Delta X   Delta X   Delta X     New X
                                 (Linear)    (Quad)   (Total)
    R1        2.54313   0.01678   0.00000   0.02642   0.02641   2.56954
    R2        2.58032  -0.00667   0.00000  -0.02601  -0.02603   2.55429
    R3        2.53475   0.02112   0.00000   0.03010   0.03012   2.56487
    R4        2.57098  -0.00296   0.00000  -0.01699  -0.01698   2.55400
    R5        2.63446   0.02802   0.00000   0.04789   0.04792   2.68238
    R6        2.64262  -0.00373   0.00000  -0.01756  -0.01759   2.62503
    R7        2.05303  -0.00043   0.00000  -0.00106  -0.00106   2.05197
    R8        2.67071   0.02831   0.00000   0.03943   0.03950   2.71021
    R9        2.63108   0.02101   0.00000   0.03720   0.03715   2.66822
   R10        3.42062   0.01382   0.00000   0.01540   0.01540   3.43602
   R11        2.63395   0.00022   0.00000  -0.01226  -0.01229   2.62166
   R12        2.05235   0.00060   0.00000   0.00276   0.00276   2.05511
   R13        2.62808   0.02671   0.00000   0.04681   0.04683   2.67491
   R14        2.05193   0.00332   0.00000   0.00768   0.00768   2.05961
   R15        2.63292   0.01533   0.00000   0.02878   0.02875   2.66167
   R16        2.69862   0.00282   0.00000  -0.00745  -0.00745   2.69117
   R17        2.05789   0.00050   0.00000   0.00202   0.00202   2.05991
   R18        2.63894   0.06046   0.00000   0.11213   0.11210   2.75104
   R19        2.74504   0.04049   0.00000   0.10457   0.10459   2.84964
   R20        2.43657  -0.00872   0.00000  -0.02993  -0.02993   2.40664
   R21        2.63026   0.01677   0.00000   0.02857   0.02857   2.65883
   R22        2.69236   0.00450   0.00000  -0.00173  -0.00170   2.69065
   R23        2.43688  -0.00801   0.00000  -0.03074  -0.03074   2.40614
   R24        2.05734   0.00083   0.00000   0.00310   0.00310   2.06044
   R25        2.76016   0.04721   0.00000   0.06274   0.06274   2.82290
   R26        2.75845   0.04246   0.00000   0.05488   0.05488   2.81332
   R27        2.76388   0.04410   0.00000   0.05872   0.05872   2.82260
    A1        2.05848  -0.00098   0.00000   0.00011   0.00008   2.05856
    A2        2.05183  -0.00146   0.00000   0.00173   0.00179   2.05362
    A3        2.10580   0.00541   0.00000   0.01098   0.01100   2.11680
    A4        2.08243  -0.00290   0.00000  -0.00634  -0.00635   2.07609
    A5        2.09495  -0.00251   0.00000  -0.00464  -0.00465   2.09030
    A6        2.10215   0.00024   0.00000  -0.00225  -0.00230   2.09985
    A7        2.10373   0.00268   0.00000   0.00532   0.00528   2.10901
    A8        2.07731  -0.00292   0.00000  -0.00307  -0.00298   2.07433
    A9        2.10167  -0.00346   0.00000  -0.00883  -0.00895   2.09272
   A10        2.11179   0.00205   0.00000   0.02205   0.02203   2.13381
   A11        2.06933   0.00145   0.00000  -0.01371  -0.01372   2.05561
   A12        2.07618   0.00768   0.00000   0.01387   0.01379   2.08997
   A13        2.09519  -0.00408   0.00000  -0.00696  -0.00693   2.08826
   A14        2.11182  -0.00361   0.00000  -0.00692  -0.00688   2.10494
   A15        2.12574   0.00027   0.00000  -0.00141  -0.00141   2.12433
   A16        2.07115   0.00818   0.00000   0.02089   0.02082   2.09197
   A17        2.08630  -0.00845   0.00000  -0.01948  -0.01941   2.06689
   A18        2.11903   0.00174   0.00000   0.00658   0.00659   2.12562
   A19        2.09240   0.00152   0.00000   0.01121   0.01121   2.10361
   A20        2.07175  -0.00327   0.00000  -0.01779  -0.01779   2.05396
   A21        2.20033  -0.00462   0.00000  -0.01334  -0.01337   2.18696
   A22        2.04103   0.00433   0.00000   0.01014   0.01015   2.05119
   A23        2.04183   0.00029   0.00000   0.00320   0.00322   2.04504
   A24        2.11778  -0.00063   0.00000  -0.00498  -0.00494   2.11283
   A25        2.11202   0.00074   0.00000  -0.00041  -0.00041   2.11161
   A26        2.05339  -0.00011   0.00000   0.00539   0.00536   2.05875
   A27        2.02582   0.00576   0.00000   0.00985   0.00987   2.03569
   A28        2.05620   0.01724   0.00000   0.06997   0.06997   2.12617
   A29        2.20117  -0.02300   0.00000  -0.07983  -0.07983   2.12133
   A30        2.11457  -0.00125   0.00000  -0.00534  -0.00533   2.10924
   A31        2.10395   0.00300   0.00000   0.00505   0.00505   2.10901
   A32        2.06466  -0.00175   0.00000   0.00030   0.00027   2.06493
   A33        2.02308   0.00559   0.00000   0.01150   0.01154   2.03463
   A34        2.20492  -0.02349   0.00000  -0.08055  -0.08057   2.12435
   A35        2.05519   0.01790   0.00000   0.06905   0.06902   2.12421
   A36        2.19910  -0.00487   0.00000  -0.01370  -0.01368   2.18542
   A37        2.04291   0.00411   0.00000   0.00959   0.00958   2.05248
   A38        2.04118   0.00076   0.00000   0.00411   0.00410   2.04528
   A39        1.78492   0.03124   0.00000   0.04945   0.04839   1.83331
   A40        1.81752   0.02569   0.00000   0.03534   0.03432   1.85184
   A41        1.79570   0.02648   0.00000   0.03295   0.03203   1.82773
   A42        2.01476  -0.02112   0.00000  -0.02908  -0.03045   1.98431
   A43        2.00638  -0.02170   0.00000  -0.03936  -0.04051   1.96588
   A44        2.00141  -0.01816   0.00000  -0.01778  -0.01886   1.98254
    D1        3.14086   0.00007   0.00000   0.00181   0.00184  -3.14049
    D2       -0.00075  -0.00004   0.00000   0.00149   0.00149   0.00074
    D3       -3.14050  -0.00002   0.00000  -0.00125  -0.00125   3.14144
    D4        0.00078   0.00000   0.00000  -0.00165  -0.00165  -0.00087
    D5        0.00073  -0.00001   0.00000  -0.00137  -0.00137  -0.00064
    D6        3.14093  -0.00002   0.00000   0.00045   0.00048   3.14141
    D7       -0.00070  -0.00003   0.00000   0.00120   0.00121   0.00051
    D8        3.14075   0.00002   0.00000   0.00100   0.00100  -3.14143
    D9       -3.13401  -0.00014   0.00000  -0.00064  -0.00065  -3.13466
   D10        0.00760  -0.00003   0.00000  -0.00032  -0.00030   0.00729
   D11        0.00447   0.00006   0.00000  -0.00098  -0.00096   0.00352
   D12       -3.13711   0.00017   0.00000  -0.00066  -0.00061  -3.13772
   D13       -0.01532   0.00018   0.00000   0.00319   0.00320  -0.01213
   D14       -3.12606  -0.00111   0.00000   0.02236   0.02250  -3.10356
   D15        3.12941  -0.00002   0.00000   0.00353   0.00351   3.13291
   D16        0.01867  -0.00132   0.00000   0.02271   0.02281   0.04148
   D17       -0.00001   0.00005   0.00000   0.00002   0.00003   0.00002
   D18       -3.14019   0.00004   0.00000  -0.00184  -0.00183   3.14116
   D19        3.14157  -0.00006   0.00000  -0.00029  -0.00032   3.14125
   D20        0.00139  -0.00006   0.00000  -0.00216  -0.00218  -0.00079
   D21        0.01369  -0.00012   0.00000  -0.00325  -0.00331   0.01038
   D22       -3.12848  -0.00002   0.00000  -0.00952  -0.00961  -3.13810
   D23        3.12517   0.00116   0.00000  -0.02134  -0.02114   3.10403
   D24       -0.01701   0.00126   0.00000  -0.02761  -0.02744  -0.04444
   D25       -1.77707  -0.00028   0.00000  -0.38470  -0.38483  -2.16190
   D26        0.32665  -0.00020   0.00000  -0.38190  -0.38182  -0.05517
   D27        2.42012   0.00135   0.00000  -0.37325  -0.37333   2.04680
   D28        1.39482  -0.00146   0.00000  -0.36594  -0.36599   1.02883
   D29       -2.78464  -0.00138   0.00000  -0.36314  -0.36297   3.13557
   D30       -0.69118   0.00016   0.00000  -0.35449  -0.35448  -1.04566
   D31       -0.00469   0.00001   0.00000   0.00068   0.00071  -0.00397
   D32        3.13842   0.00011   0.00000  -0.00170  -0.00172   3.13670
   D33        3.13749  -0.00010   0.00000   0.00700   0.00707  -3.13862
   D34       -0.00259   0.00001   0.00000   0.00462   0.00464   0.00205
   D35        3.14012   0.00012   0.00000   0.00029   0.00026   3.14039
   D36       -0.00297   0.00001   0.00000   0.00266   0.00266  -0.00031
   D37       -0.00283   0.00011   0.00000   0.00208   0.00207  -0.00077
   D38        3.13726   0.00001   0.00000   0.00446   0.00446  -3.14146
   D39        3.14118   0.00000   0.00000   0.00025   0.00025   3.14144
   D40       -0.00011  -0.00001   0.00000   0.00064   0.00064   0.00054
   D41       -0.00019   0.00000   0.00000  -0.00083  -0.00083  -0.00102
   D42       -3.14148  -0.00002   0.00000  -0.00044  -0.00044   3.14126
   D43        0.00032   0.00000   0.00000  -0.00093  -0.00093  -0.00062
   D44       -3.14124   0.00000   0.00000  -0.00072  -0.00071   3.14123
   D45       -3.14149   0.00001   0.00000   0.00015   0.00015  -3.14134
   D46        0.00013   0.00001   0.00000   0.00036   0.00037   0.00051
   D47       -0.00005   0.00004   0.00000   0.00031   0.00031   0.00025
   D48       -3.14151  -0.00001   0.00000   0.00051   0.00051  -3.14100
   D49        3.14124   0.00005   0.00000  -0.00008  -0.00008   3.14115
   D50       -0.00022   0.00001   0.00000   0.00012   0.00012  -0.00010
   D51       -0.00019   0.00000   0.00000   0.00045   0.00045   0.00026
   D52        3.14148   0.00000   0.00000   0.00045   0.00045  -3.14126
   D53        3.14137   0.00001   0.00000   0.00022   0.00024  -3.14158
   D54       -0.00016   0.00000   0.00000   0.00022   0.00023   0.00008
   D55       -3.14111  -0.00004   0.00000  -0.00037  -0.00037  -3.14148
   D56        0.00028  -0.00005   0.00000  -0.00020  -0.00020   0.00008
   D57        0.00034   0.00000   0.00000  -0.00057  -0.00057  -0.00023
   D58       -3.14145   0.00000   0.00000  -0.00041  -0.00040   3.14133
   D59       -0.00013  -0.00001   0.00000   0.00026   0.00026   0.00013
   D60       -3.14152  -0.00001   0.00000   0.00009   0.00010  -3.14142
   D61        3.14140  -0.00001   0.00000   0.00025   0.00026  -3.14153
   D62        0.00001   0.00000   0.00000   0.00008   0.00009   0.00010
         Item               Value     Threshold  Converged?
 Maximum Force            0.060461     0.000015     NO 
 RMS     Force            0.012707     0.000010     NO 
 Maximum Displacement     0.798386     0.000060     NO 
 RMS     Displacement     0.149546     0.000040     NO 
 Predicted change in Energy=-2.356487D-02
 GradGradGradGradGradGradGradGradGradGradGradGradGradGradGradGradGradGrad

                          Input orientation:                          
 ---------------------------------------------------------------------
 Center     Atomic      Atomic             Coordinates (Angstroms)
 Number     Number       Type             X           Y           Z
 ---------------------------------------------------------------------
      1          7           0        0.856822   -1.147473    0.455023
      2          7           0        1.034503    1.605344   -0.239918
      3          6           0       -1.541066   -1.023504    0.238697
      4          6           0       -0.258133   -0.418809    0.181493
      5          6           0       -2.692672   -0.300276   -0.044779
      6          6           0       -2.599537    1.067264   -0.383596
      7          6           0       -0.162075    0.968746   -0.168281
      8          6           0       -1.355511    1.678389   -0.443523
      9          6           0        3.250420   -1.215250    0.658185
     10          6           0        2.053843   -0.523284    0.387552
     11          6           0        4.556478   -0.649273    0.613945
     12          6           0        2.145550    0.885394    0.031842
     13          6           0        4.648784    0.809976    0.245134
     14          6           0        3.420344    1.478348   -0.022282
     15          1           0       -1.615971   -2.073046    0.506899
     16          8           0        5.767815    1.413515    0.176292
     17          1           0       -3.504063    1.630308   -0.601558
     18          1           0       -1.268487    2.732079   -0.708176
     19          1           0        3.173528   -2.269574    0.924111
     20          8           0        5.595977   -1.338283    0.872042
     21          8           0       -4.964394   -0.831162   -1.271453
     22          1           0        3.475535    2.533835   -0.290116
     23         16           0       -4.352739   -1.032090    0.076502
     24          8           0       -4.148187   -2.462885    0.433359
     25          8           0       -5.038756   -0.242278    1.142607
 ---------------------------------------------------------------------
                    Distance matrix (angstroms):
                    1          2          3          4          5
     1  N    0.000000
     2  N    2.844735   0.000000
     3  C    2.410816   3.711263   0.000000
     4  C    1.359741   2.438379   1.419452   0.000000
     5  C    3.683267   4.190621   1.389106   2.447903   0.000000
     6  C    4.189840   3.676469   2.424649   2.830179   1.411962
     7  C    2.430030   1.357272   2.456890   1.434183   2.833654
     8  C    3.699635   2.399783   2.792863   2.448086   2.421180
     9  C    2.403160   3.697651   4.813634   3.629256   6.054063
    10  C    1.351674   2.442095   3.632595   2.323491   4.771378
    11  C    3.736430   4.268101   6.120531   4.839484   7.287379
    12  C    2.443860   1.351519   4.156659   2.738801   4.981975
    13  C    4.272544   3.732413   6.455690   5.058834   7.430592
    14  C    3.700594   2.399110   5.562639   4.143902   6.366551
    15  H    2.640849   4.594921   1.085855   2.164743   2.146240
    16  O    5.545647   4.755447   7.704719   6.298372   8.635149
    17  H    5.277287   4.553020   3.406187   3.917667   2.166914
    18  H    4.573936   2.606254   3.882689   3.426430   3.415198
    19  H    2.616539   4.576612   4.924416   3.969018   6.263320
    20  O    4.761292   5.541519   7.172001   5.965978   8.403554
    21  O    6.080076   6.556477   3.746561   4.942669   2.635771
    22  H    4.578746   2.612135   6.172567   4.783388   6.792581
    23  S    5.224569   6.006543   2.816361   4.141610   1.818263
    24  O    5.175026   6.622995   2.984424   4.401613   2.650285
    25  O    6.004164   6.496889   3.696107   4.879473   2.630087
                    6          7          8          9         10
     6  C    0.000000
     7  C    2.448936   0.000000
     8  C    1.387323   1.415500   0.000000
     9  C    6.365310   4.134974   5.549911   0.000000
    10  C    4.977796   2.728626   4.142674   1.408494   0.000000
    11  C    7.426314   5.049219   6.441108   1.424105   2.516011
    12  C    4.766709   2.317785   3.621083   2.454741   1.455786
    13  C    7.280086   4.831199   6.105731   2.495511   2.920888
    14  C    6.044708   3.621427   4.798567   2.783412   2.458011
    15  H    3.409095   3.438340   3.878712   4.943729   3.985416
    16  O    8.393208   5.956522   7.155146   3.671500   4.193973
    17  H    1.087517   3.434279   2.154893   7.436881   6.042070
    18  H    2.156074   2.150575   1.089897   6.153768   4.778690
    19  H    6.795061   4.775593   6.161902   1.090059   2.142690
    20  O    8.633060   6.289660   7.691177   2.358498   3.666834
    21  O    3.159882   5.245848   4.472957   8.447141   7.218222
    22  H    6.250285   3.961887   4.908597   3.873705   3.438955
    23  S    2.773570   4.650261   4.074371   7.627577   6.434277
    24  O    3.940518   5.294067   5.071302   7.506432   6.498409
    25  O    3.161327   5.192978   4.446467   8.360130   7.138209
                   11         12         13         14         15
    11  C    0.000000
    12  C    2.916612   0.000000
    13  C    1.507962   2.513437   0.000000
    14  C    2.494465   1.406991   1.423832   0.000000
    15  H    6.335433   4.809062   6.901267   6.185215   0.000000
    16  O    2.431866   3.663412   1.273275   2.356747   8.172252
    17  H    8.464411   5.733604   8.237642   6.950256   4.302139
    18  H    6.863801   3.951394   6.294233   4.901777   4.968539
    19  H    2.152703   3.436089   3.481526   3.873435   4.811651
    20  O    1.273541   4.190003   2.430063   3.669687   7.258471
    21  O    9.707461   7.429430   9.869476   8.786244   3.989580
    22  H    3.481083   2.142399   2.152834   1.090337   6.912453
    23  S    8.933618   6.775433   9.189617   8.169019   2.959516
    24  O    8.893424   7.140259   9.387957   8.545383   2.563104
    25  O    9.618401   7.356608   9.785762   8.710562   3.933356
                   16         17         18         19         20
    16  O    0.000000
    17  H    9.306975   0.000000
    18  H    7.213213   2.494608   0.000000
    19  H    4.566696   7.882066   6.885665   0.000000
    20  O    2.843587   9.684770   8.135465   2.595819   0.000000
    21  O   11.059604   2.939415   5.164658   8.550748  10.787640
    22  H    2.593685   7.044724   4.766531   4.963698   4.565104
    23  S   10.412327   2.875479   4.929229   7.674275   9.985169
    24  O   10.649866   4.270852   6.048423   7.340688   9.818651
    25  O   10.975309   2.983953   5.146565   8.461635  10.694483
                   21         22         23         24         25
    21  O    0.000000
    22  H    9.138852   0.000000
    23  S    1.493812   8.610000   0.000000
    24  O    2.497018   9.143946   1.488746   0.000000
    25  O    2.485961   9.069324   1.493654   2.495444   0.000000
 Symmetry turned off by external request.
 Stoichiometry    C12H5N2O5S(3-)
 Framework group  C1[X(C12H5N2O5S)]
 Deg. of freedom    69
 Full point group                 C1      NOp   1
 Rotational constants (GHZ):      1.1300061      0.1269259      0.1167159
 Standard basis: 6-31+G(d) (6D, 7F)
   394 basis functions,   684 primitive gaussians,   394 cartesian basis functions
    75 alpha electrons       75 beta electrons
       nuclear repulsion energy      1537.8493783809 Hartrees.
 NAtoms=   25 NActive=   25 NUniq=   25 SFac= 1.00D+00 NAtFMM=   60 NAOKFM=F Big=F
 Integral buffers will be    131072 words long.
 Raffenetti 2 integral format.
 Two-electron integral symmetry is turned off.
 One-electron integrals computed using PRISM.
 PrsmSu:  requested number of processors reduced to:   9 ShMem   1 Linda.
 NBasis=   394 RedAO= T EigKep=  1.59D-06  NBF=   394
 NBsUse=   391 1.00D-06 EigRej=  8.47D-07 NBFU=   391
 Initial guess from the checkpoint file:  "dhps_depro.chk"
 B after Tr=    -0.010457    0.009259    0.025986
         Rot=    0.999857   -0.016634   -0.003002   -0.000255 Ang=  -1.94 deg.
 ExpMin= 4.05D-02 ExpMax= 2.19D+04 ExpMxC= 3.30D+03 IAcc=2 IRadAn=         4 AccDes= 0.00D+00
 Harris functional with IExCor=  402 and IRadAn=       4 diagonalized for initial guess.
 HarFok:  IExCor=  402 AccDes= 0.00D+00 IRadAn=         4 IDoV= 1 UseB2=F ITyADJ=14
 ICtDFT=  3500011 ScaDFX=  1.000000  1.000000  1.000000  1.000000
 FoFCou: FMM=F IPFlag=           0 FMFlag=      100000 FMFlg1=           0
         NFxFlg=           0 DoJE=T BraDBF=F KetDBF=T FulRan=T
         wScrn=  0.000000 ICntrl=     500 IOpCl=  0 I1Cent=   200000004 NGrid=           0
         NMat0=    1 NMatS0=      1 NMatT0=    0 NMatD0=    1 NMtDS0=    0 NMtDT0=    0
 Symmetry not used in FoFCou.
 Requested convergence on RMS density matrix=1.00D-08 within 128 cycles.
 Requested convergence on MAX density matrix=1.00D-06.
 Requested convergence on             energy=1.00D-06.
 No special actions if energy rises.
 SCF Done:  E(RB3LYP) =  -1344.04530015     A.U. after   19 cycles
            NFock= 19  Conv=0.54D-08     -V/T= 2.0074
 PrsmSu:  requested number of processors reduced to:   9 ShMem   1 Linda.
 Calling FoFJK, ICntrl=      2127 FMM=F ISym2X=0 I1Cent= 0 IOpClX= 0 NMat=1 NMatS=1 NMatT=0.
 -------------------------------------------------------------------
 Center     Atomic                   Forces (Hartrees/Bohr)
 Number     Number              X              Y              Z
 -------------------------------------------------------------------
      1        7           0.003866736   -0.001665850    0.000785989
      2        7           0.004571007    0.000681760    0.000205329
      3        6          -0.005915339   -0.000737529   -0.000973059
      4        6           0.002261279   -0.002206203    0.000438346
      5        6           0.000589015   -0.002162836    0.002947365
      6        6           0.002287619    0.003453312   -0.001768191
      7        6           0.002346361    0.003086001   -0.000589752
      8        6          -0.006540623    0.001330046   -0.001069190
      9        6           0.001200074   -0.001913988    0.000588550
     10        6          -0.004438315   -0.015759761    0.003716538
     11        6          -0.001977251   -0.017860744    0.004444186
     12        6          -0.002024032    0.016382596   -0.004390922
     13        6           0.000354149    0.017667048   -0.004522810
     14        6           0.001496461    0.001644180   -0.000293821
     15        1           0.000606567   -0.000271205    0.000280962
     16        8           0.001451043   -0.003934879    0.001121126
     17        1          -0.000075900   -0.000384240    0.000335338
     18        1           0.000854828    0.000609727   -0.000071984
     19        1           0.000232935   -0.000203920    0.000081061
     20        8           0.001788168    0.003843560   -0.000847665
     21        8          -0.007555616   -0.000264507   -0.008400690
     22        1           0.000215951    0.000248794   -0.000061480
     23       16           0.014691713    0.005495874   -0.000855060
     24        8          -0.001898280   -0.010394798    0.002116436
     25        8          -0.008388550    0.003317565    0.006783397
 -------------------------------------------------------------------
 Cartesian Forces:  Max     0.017860744 RMS     0.005289792

 GradGradGradGradGradGradGradGradGradGradGradGradGradGradGradGradGradGrad
 Berny optimization.
 Using GEDIIS/GDIIS optimizer.
 FormGI is forming the generalized inverse of G from B-inverse, IUseBI=4.
 Internal  Forces:  Max     0.017787094 RMS     0.003235298
 Search for a local minimum.
 Step number   2 out of a maximum of  143
 All quantities printed in internal units (Hartrees-Bohrs-Radians)
 Mixed Optimization -- RFO/linear search
 Update second derivatives using D2CorX and points    1    2
 DE= -2.42D-02 DEPred=-2.36D-02 R= 1.03D+00
 TightC=F SS=  1.41D+00  RLast= 9.53D-01 DXNew= 5.0454D-01 2.8599D+00
 Trust test= 1.03D+00 RLast= 9.53D-01 DXMaxT set to 5.05D-01
 ITU=  1  0
 Use linear search instead of GDIIS.
     Eigenvalues ---   -0.00041   0.00531   0.01010   0.01416   0.01517
     Eigenvalues ---    0.01573   0.01722   0.01727   0.01764   0.01945
     Eigenvalues ---    0.02038   0.02063   0.02180   0.02442   0.02584
     Eigenvalues ---    0.02727   0.02965   0.03083   0.04207   0.04483
     Eigenvalues ---    0.10561   0.10776   0.10939   0.11092   0.12095
     Eigenvalues ---    0.16836   0.16929   0.17259   0.18209   0.19001
     Eigenvalues ---    0.19620   0.20045   0.20192   0.20721   0.21351
     Eigenvalues ---    0.21968   0.22129   0.22975   0.24135   0.25014
     Eigenvalues ---    0.26250   0.30119   0.30421   0.31359   0.33341
     Eigenvalues ---    0.34073   0.34803   0.34924   0.35789   0.35894
     Eigenvalues ---    0.36220   0.36395   0.36420   0.39890   0.40016
     Eigenvalues ---    0.42037   0.43810   0.45837   0.47428   0.48740
     Eigenvalues ---    0.50551   0.52778   0.56690   0.57349   0.58545
     Eigenvalues ---    0.59458   0.60763   0.61589   0.64087
 RFO step:  Lambda=-1.41669456D-03 EMin=-4.14239804D-04
 Quartic linear search produced a step of  0.37832.
 Iteration  1 RMS(Cart)=  0.07783041 RMS(Int)=  0.07553818
 Iteration  2 RMS(Cart)=  0.07890463 RMS(Int)=  0.03352759
 Iteration  3 RMS(Cart)=  0.06163128 RMS(Int)=  0.00400619
 Iteration  4 RMS(Cart)=  0.00415231 RMS(Int)=  0.00010522
 Iteration  5 RMS(Cart)=  0.00001280 RMS(Int)=  0.00010501
 Iteration  6 RMS(Cart)=  0.00000001 RMS(Int)=  0.00010501
 Variable       Old X    -DE/DX   Delta X   Delta X   Delta X     New X
                                 (Linear)    (Quad)   (Total)
    R1        2.56954   0.00369   0.00999  -0.00361   0.00638   2.57592
    R2        2.55429  -0.00149  -0.00985   0.00270  -0.00715   2.54714
    R3        2.56487   0.00442   0.01140  -0.00442   0.00699   2.57186
    R4        2.55400  -0.00100  -0.00642   0.00023  -0.00619   2.54781
    R5        2.68238   0.00554   0.01813  -0.00404   0.01410   2.69647
    R6        2.62503  -0.00016  -0.00665   0.00071  -0.00595   2.61907
    R7        2.05197   0.00029  -0.00040   0.00000  -0.00040   2.05157
    R8        2.71021   0.00625   0.01494  -0.00756   0.00741   2.71762
[...]
 0002273,-0.00004356,0.00151686,-0.00055814,0.00044526,0.00015297,0.000
 06771,0.00000136,-0.12861735,0.13658895,-0.00002958,-0.00016372,-0.000
 44227,-0.00010132,0.00020799,0.00090063,0.00049809,0.00259860,0.003978
 42,0.00028863,-0.00023414,-0.00092661,-0.00679335,0.00330632,-0.000536
 35,-0.04588820,0.03435083,-0.04214105,-0.00001795,0.00181262,0.0070471
 5,0.00193200,-0.00108820,0.00220793,-0.00003730,0.00000955,0.00004438,
 0.00002825,0.00001511,0.00014986,0.00004505,-0.00002729,-0.00002395,0.
 00012493,-0.00012744,-0.00046046,0.00007430,-0.00000505,-0.00001634,-0
 .00005682,-0.00004167,-0.00018381,-0.00044500,0.00032492,0.00061456,-0
 .00006669,-0.00001769,0.00003186,0.05069055,-0.03877683,0.03559656,-0.
 00033548,0.00167033,-0.00043417,0.00273863,-0.00019796,0.00047620,-0.0
 0099477,0.00028381,-0.00010048,-0.00450839,0.00076451,-0.00089194,-0.0
 0449138,-0.00153714,-0.00042457,0.00191778,-0.02820829,0.00739072,0.00
 583607,0.02565398,-0.00659608,-0.05832396,-0.02068608,0.00354057,-0.00
 024593,-0.00009554,0.00000810,0.00090247,0.00027821,-0.00001210,0.0000
 9149,0.00009903,-0.00002439,-0.00034394,-0.00060536,0.00019903,-0.0001
 7549,0.00001707,-0.00001847,0.00016871,-0.00004724,0.00000279,0.000112
 83,-0.00003919,0.00006455,0.00014918,0.00002613,0.00000692,0.00112654,
 0.00074320,0.00022287,0.05618075,-0.00001408,-0.00179070,0.00036772,-0
 .00237384,0.00197334,-0.00156174,0.00034260,0.00053227,-0.00029131,0.0
 0385248,0.00143453,0.00128524,-0.00333264,0.00132136,0.00123219,0.0017
 5428,-0.01012072,0.00322828,-0.00452443,-0.01691569,0.00522635,-0.0187
 5310,-0.30257798,0.06956147,0.00065829,0.00016339,0.00000181,-0.001005
 56,0.00064748,-0.00022293,-0.00060136,0.00005711,-0.00003832,0.0005726
 9,-0.00011748,-0.00018149,-0.00023001,-0.00021783,0.00004797,0.0000871
 3,-0.00008760,0.00011174,-0.00001626,-0.00016806,-0.00012498,0.0003202
 7,0.00022629,-0.00004835,-0.00059133,0.00067130,-0.00144838,0.02306442
 ,0.32538415,0.00000176,0.00048821,-0.00051116,0.00106571,-0.00141578,-
 0.00291815,-0.00011497,-0.00028483,-0.00059435,-0.00170124,0.00106442,
 0.00491894,0.00007251,0.00139129,0.00660872,-0.00045591,0.00104558,0.0
 0143752,0.00127525,0.00736685,0.00245483,0.00306007,0.06945404,-0.0492
 2338,-0.00019308,-0.00005224,-0.00000370,0.00032742,-0.00013786,0.0001
 0179,0.00016178,0.00001252,0.00007977,-0.00011205,-0.00025354,-0.00087
 262,0.00004342,0.00006780,0.00001830,-0.00002955,0.00009676,0.00026786
 ,0.00005993,-0.00012824,-0.00060848,-0.00006892,-0.00006949,-0.0000336
 2,0.00055415,-0.00134892,-0.00432018,-0.00371000,-0.07743579,0.0427940
 8,0.00216821,-0.00004267,0.00039152,0.00026238,0.00177607,-0.00045402,
 -0.00000413,0.00000114,-0.00001017,0.00004524,-0.00051522,0.00021458,0
 .00003973,0.00004138,-0.00001268,-0.00007263,0.00000661,-0.00001163,0.
 00042945,0.00011918,-0.00003532,-0.00000691,-0.00011762,0.00004481,-0.
 05517108,-0.02085823,0.00338785,0.00454357,0.02626761,-0.00670184,0.00
 075782,-0.02904096,0.00738794,-0.00520797,0.00017947,-0.00076268,-0.00
 530921,0.00146763,-0.00116808,0.00059946,-0.00006783,0.00013183,-0.000
 03171,-0.00000889,0.00000302,-0.00042974,-0.00242422,0.00068009,-0.000
 00360,-0.00000519,0.00000096,0.00002584,-0.00004454,0.00001555,0.05414
 477,-0.00236696,0.00181333,-0.00151694,0.00016576,-0.00175956,0.000504
 97,-0.00048337,-0.00013634,0.00003426,0.00127965,0.00027684,-0.0002660
 4,0.00042973,-0.00022049,0.00010650,0.00020842,0.00023420,-0.00003226,
 -0.00068763,0.00021556,0.00002760,-0.00000777,0.00015028,-0.00009360,-
 0.01990150,-0.30221277,0.07119053,-0.00396325,-0.01559751,0.00433299,0
 .00384233,-0.01453238,0.00517586,0.00327176,0.00123743,0.00118008,-0.0
 0252001,0.00317521,0.00049718,0.00038805,0.00046818,-0.00035614,0.0000
 2403,0.00004703,-0.00001816,-0.00112573,-0.00186909,0.00013328,0.00002
 937,-0.00000722,0.00000408,-0.00006059,-0.00000371,-0.00001107,0.02157
 350,0.32541652,0.00100757,-0.00135822,-0.00290292,-0.00003353,0.000620
 44,-0.00004745,0.00011737,0.00006736,0.00011313,-0.00025571,-0.0003940
 4,-0.00099518,-0.00011615,0.00008240,0.00005527,-0.00006708,-0.0000428
 1,0.00007053,0.00017360,0.00008085,0.00048527,0.00001665,-0.00010226,-
 0.00018061,0.00315777,0.07116234,-0.04374599,0.00123455,0.00645248,0.0
 0036476,-0.00127599,0.00282634,0.00333288,-0.00156547,0.00097412,0.004
 52555,-0.00012141,0.00077678,0.00554008,0.00000471,-0.00038603,-0.0009
 0367,-0.00000712,-0.00001949,-0.00002460,0.00034155,0.00004404,-0.0010
 4681,-0.00000803,0.00000223,0.00000040,0.00001957,-0.00000939,-0.00002
 610,-0.00323120,-0.07875064,0.03966674,-0.01596914,0.00026260,-0.00119
 798,0.01287370,-0.00025865,0.00098886,-0.00135088,0.00004804,-0.000107
 77,0.00577825,-0.00293933,0.00128582,0.00009447,0.00196880,-0.00050351
 ,-0.00451012,-0.00110201,-0.00002639,-0.00993520,-0.00052660,-0.000603
 63,0.00533952,-0.00168531,0.00080967,-0.08882985,0.02800719,-0.0148191
 3,0.01895617,-0.01525516,0.00468862,-0.36974804,0.18089844,-0.06914302
 ,-0.01340798,0.00283734,-0.00158661,-0.02162231,0.02508278,-0.00908667
 ,0.01165304,-0.00035413,0.00075698,0.00025850,-0.00002018,0.00003012,0
 .01696303,-0.00277183,0.00194626,-0.00017104,0.00012839,-0.00004235,-0
 .00004130,0.00053323,-0.00014350,0.00310878,-0.00005804,0.00057778,0.4
 5118474,-0.00048754,0.00076348,-0.00024863,-0.00288228,0.00050231,-0.0
 0037366,-0.00182856,-0.00010934,-0.00012027,0.00137357,-0.00059226,-0.
 00014597,0.00136607,-0.00185668,0.00058713,0.00208668,0.00148497,-0.00
 026354,0.00327594,0.00042941,0.00025746,-0.00217445,0.00073747,-0.0003
 1318,0.01107813,0.02093157,-0.00028593,-0.00518081,0.00486161,0.000790
 42,0.16646323,-0.19971353,0.04781987,0.00149861,-0.00235433,0.00030012
 ,0.04108039,-0.03522568,0.01585283,-0.00615889,-0.00691840,0.00196961,
 -0.00008457,0.00006824,-0.00003901,0.00184781,0.00463626,-0.00122315,0
 .00012769,-0.00007245,0.00002439,-0.00002332,-0.00021957,0.00005158,0.
 00173018,0.00357342,-0.00204974,-0.21554049,0.21128464,-0.00100192,-0.
 00019655,-0.00007151,0.00167734,-0.00019255,0.00001154,0.00038828,0.00
 000745,-0.00006876,0.00015735,-0.00044958,-0.00139064,-0.00035597,0.00
 064407,-0.00011646,-0.00085927,-0.00048690,-0.00001276,-0.00159629,-0.
 00001569,0.00039636,0.00093851,-0.00027955,0.00026639,-0.01037083,0.00
 090321,0.01583653,0.00205523,0.00006602,0.00937433,-0.06536511,0.04883
 231,-0.07960806,-0.00123288,0.00040858,-0.00176011,-0.01329808,0.01473
 669,0.00944729,0.00228063,0.00237314,0.00176329,0.00004397,-0.00003366
 ,-0.00003905,0.00073755,-0.00154198,-0.00009656,-0.00004507,0.00002561
 ,-0.00001804,0.00000437,0.00009007,-0.00004092,0.00009885,-0.00216687,
 -0.00409598,0.08636100,-0.06311207,0.05129385,-0.00033530,-0.00040380,
 0.00052533,-0.00235657,0.00001422,-0.00030237,0.00094546,-0.00558070,-
 0.00068007,-0.00155661,0.00024285,0.00183197,-0.00676937,0.00370350,-0
 .02378535,-0.00230599,0.00160600,-0.00125155,0.00144557,0.00117290,-0.
 00016678,-0.00064953,-0.00046248,0.00079862,-0.00094669,-0.00013034,-0
 .00008676,0.00050389,-0.00105384,0.00015861,0.00136584,-0.00091248,0.0
 0031413,0.00230500,0.00041272,0.00000188,0.00241985,0.00022561,0.00016
 161,-0.00232068,0.00037063,-0.00026186,0.00020286,-0.00001125,-0.00100
 820,-0.00221596,-0.00088658,0.00007121,0.00013471,-0.00083563,-0.00017
 360,-0.00032873,-0.00043897,0.00022180,0.00000997,0.00018403,-0.000045
 81,-0.00140873,0.00097409,-0.00033830,0.11219844,-0.00028269,-0.000011
 80,0.00016388,-0.00023535,0.00026901,-0.00002957,-0.00006111,-0.002826
 38,-0.00023519,-0.00094046,0.00028006,0.00029587,-0.00631328,0.0102447
 6,-0.00596447,0.00107798,-0.00152813,-0.00019170,-0.00029380,0.0006691
 9,-0.00013819,0.00089985,0.00125064,-0.00057661,-0.00043867,-0.0000606
 6,0.00000439,0.00018286,-0.00041844,-0.00004323,0.00051040,-0.00031215
 ,0.00012084,0.00043665,0.00032908,-0.00009844,0.00063520,0.00017469,0.
 00001139,-0.00054390,0.00012604,-0.00005920,-0.00065082,0.00039653,-0.
 00014438,-0.00060964,-0.00024974,0.00002270,-0.00032289,0.00135383,0.0
 0030789,0.00014107,0.00001092,-0.00005518,-0.00001063,0.00009776,-0.00
 002770,-0.00052707,0.00037781,-0.00012585,-0.01634289,0.06420414,-0.00
 062197,-0.00034397,0.00041420,-0.00146029,-0.00013335,-0.00000590,-0.0
 0225127,-0.00382422,0.00060491,-0.00049353,0.00040560,0.00028646,-0.00
 032546,0.00657409,-0.00420237,-0.00215143,0.00160309,0.00118059,0.0009
 5037,0.00041516,-0.00018583,-0.00083365,-0.00108026,0.00096223,-0.0006
 0381,-0.00002474,0.00011311,0.00038531,-0.00052286,-0.00003264,0.00078
 506,-0.00046995,0.00016546,0.00131160,0.00014628,-0.00007945,0.0013402
 8,0.00012234,0.00007188,-0.00129729,0.00021830,-0.00001887,0.00071140,
 -0.00032351,-0.00053502,-0.00123495,-0.00050239,0.00008234,0.00066288,
 -0.00106943,-0.00108731,-0.00035986,-0.00044335,0.00006185,0.00001596,
 0.00007473,-0.00005312,-0.00080288,0.00052964,-0.00014645,0.13910690,-
 0.02729169,0.40208518,-0.00001969,-0.00199337,0.00051497,0.00248564,0.
 00016266,0.00037815,0.00003809,0.00013368,-0.00002426,0.00049194,-0.00
 017573,0.00005297,-0.00010506,0.00005780,-0.00002342,-0.00004870,-0.00
 009783,0.00001675,-0.00002190,0.00062905,-0.00008551,0.00006048,-0.000
 03399,0.00000078,0.00057212,0.00012105,0.00007926,-0.00558012,0.000341
 20,-0.00083690,-0.00506938,-0.00085204,-0.00052697,0.00125741,-0.02851
 111,0.00743245,0.00372807,0.02650983,-0.00698015,-0.05420180,-0.013175
 92,0.00144461,0.00003921,0.00003370,-0.00000362,0.00297298,-0.00129742
 ,0.00087276,-0.00000118,0.00000821,-0.00000273,-0.00003129,0.00003688,
 -0.00001072,0.00010496,-0.00002212,0.00002425,0.00002064,0.00220539,-0
 .00050518,-0.00004304,-0.00000336,-0.00002574,0.05331404,-0.00041995,-
 0.00163490,0.00041801,0.00255589,0.00166212,-0.00114616,0.00002876,0.0
 0011395,-0.00005970,0.00066913,0.00018376,0.00010067,-0.00015598,0.000
 25136,-0.00006699,-0.00045132,-0.00021299,0.00003845,-0.00120067,0.000
 37058,-0.00048464,0.00044039,-0.00025776,0.00014864,-0.00034837,0.0005
 0080,-0.00042236,-0.00287089,0.00165086,0.00068826,0.00324351,0.003163
 15,0.00086223,0.00179717,-0.01368851,0.00427019,-0.00650949,-0.0169413
 4,0.00506852,-0.01408302,-0.30114011,0.07142200,0.00007162,-0.00000146
 ,-0.00000327,0.00051020,0.00378142,-0.00218609,-0.00003619,0.00001250,
 -0.00000459,-0.00001949,0.00011869,-0.00003981,-0.00001921,-0.00027899
 ,0.00003349,0.00097093,-0.00224648,0.00039110,-0.00017129,-0.00003273,
 -0.00011993,0.01589227,0.32455775,0.00010079,0.00031007,0.00000860,-0.
 00025186,-0.00133653,-0.00309458,-0.00000064,-0.00005137,-0.00009918,-
 0.00016561,0.00004485,0.00037390,0.00003564,-0.00005748,0.00003514,0.0
 0010853,0.00007044,0.00006829,0.00039070,-0.00035998,-0.00103754,-0.00
 012264,0.00011256,0.00014201,0.00020417,-0.00038468,-0.00088427,0.0000
 0633,0.00090995,0.00474856,-0.00159299,0.00057155,0.00531172,-0.000558
 69,0.00210501,0.00158943,0.00169481,0.00740123,0.00233709,0.00171708,0
 .07153243,-0.04381820,-0.00001351,-0.00000617,-0.00003376,0.00038811,-
 0.00231904,-0.00401699,0.00000917,-0.00000098,0.00000767,0.00000576,-0
 .00003605,-0.00001964,0.00002382,0.00003149,-0.00016421,-0.00018584,0.
 00048218,-0.00114759,0.00004463,0.00001270,0.00000395,-0.00180989,-0.0
 7900965,0.03969745,0.00034629,0.00051600,-0.00016443,0.00779556,-0.000
 09963,0.00062219,-0.02704487,-0.00043122,-0.00170525,0.00335012,0.0034
 6456,-0.00116199,-0.11475631,-0.02430849,0.00135810,0.00109226,-0.0169
 7364,0.00491761,-0.00686877,-0.00145825,-0.00006506,0.00716060,0.00540
 307,-0.00104813,0.00223397,0.00016297,0.00013959,-0.00147979,0.0023783
 2,-0.00068760,-0.00324785,0.00211411,-0.00077191,-0.00661701,-0.000389
 63,-0.00042698,-0.00627157,-0.00008219,-0.00043079,0.00632914,-0.00095
 914,0.00073588,-0.00032869,-0.00105756,0.00044963,0.00560800,0.0021173
 9,-0.00015198,-0.00144939,0.00406377,-0.00124624,0.00142938,0.00170490
 ,-0.00043250,-0.00002588,-0.00046847,0.00012056,0.00329827,-0.00233709
 ,0.00084508,-0.13126933,0.00728260,-0.11433981,0.00010171,0.00040314,-
 0.00010536,0.52509091,0.00008160,0.00072751,-0.00002784,0.00297176,-0.
 00095340,0.00030677,0.00024266,0.01647110,-0.00476283,0.00624481,-0.00
 212707,0.00275713,-0.02122014,-0.08242660,0.00626248,-0.02394837,-0.00
 938692,-0.00063222,-0.00152321,-0.00246961,0.00048209,0.00135487,-0.00
 525914,0.00214257,0.00095783,0.00018622,-0.00009433,0.00028994,0.00157
 212,-0.00041253,-0.00145665,0.00143018,-0.00049499,-0.00299527,-0.0007
 8969,0.00004441,-0.00322848,-0.00018017,-0.00017861,0.00323203,-0.0006
 4277,0.00035593,0.00479043,-0.00299062,0.00035550,0.00290899,0.0010218
 4,-0.00008278,-0.00099305,-0.00264142,0.00087682,-0.00079596,-0.000050
 89,0.00020887,0.00003092,-0.00039822,0.00012438,0.00166068,-0.00140442
 ,0.00047656,0.00932582,-0.08462092,0.02322872,0.00003458,0.00013743,-0
 .00002286,-0.11109939,0.74275207,-0.00001668,0.00001185,0.00061268,-0.
 00013993,0.00009068,-0.00062512,-0.00174808,-0.00494396,-0.00113651,-0
 .00181977,0.00255992,0.00566840,0.00078546,0.00623792,-0.05329886,0.00
 672191,0.00016601,-0.00407609,-0.00007955,0.00050941,-0.00029835,0.000
 05744,0.00246263,0.00205591,-0.00004783,-0.00014579,-0.00037007,-0.000
 17707,-0.00025533,-0.00004061,0.00013487,-0.00023266,-0.00002885,0.000
 27205,0.00023088,0.00015178,0.00036174,0.00004271,0.00004725,-0.000349
 57,0.00004531,-0.00022432,-0.00113790,-0.00000500,-0.00286210,-0.00032
 939,-0.00012496,-0.00006723,0.00007380,0.00107421,0.00049678,0.0002545
 5,0.00039492,0.00085300,-0.00001554,0.00008650,0.00004794,-0.00017862,
 0.00017602,-0.00009318,-0.12160309,0.02039123,-0.35745672,-0.00000483,
 0.00000378,0.00004740,0.01287935,-0.00969872,0.74424182,-0.00089104,-0
 .00001922,-0.00006029,-0.00088538,-0.00027266,0.00000122,-0.00189446,0
 .00054473,-0.00026633,0.00164991,-0.00179770,0.00059667,0.00634885,-0.
 01990894,0.00557423,-0.00520794,0.00138031,-0.00078499,0.00032949,0.00
 013090,-0.00000137,-0.00003100,-0.00237166,0.00058157,-0.00095756,-0.0
 0007090,-0.00005394,0.00099515,-0.00037488,0.00017114,0.00108811,-0.00
 030688,0.00015265,0.00096084,0.00026145,0.00001443,0.00107501,0.000240
 55,0.00001810,-0.00088893,0.00010970,-0.00010385,0.00086825,-0.0023028
 6,0.00070235,-0.00102886,-0.00047592,0.00005025,0.00046753,-0.00081663
 ,0.00028218,-0.00050715,-0.00044619,0.00009216,0.00001119,0.00007298,-
 0.00001826,-0.00099239,0.00054566,-0.00021393,0.01254012,0.01693725,-0
 .01023279,-0.00001834,-0.00010667,0.00002781,-0.09058058,0.03885754,-0
 .01204220,0.06766955,-0.00043146,-0.00004571,-0.00000015,-0.00191364,0
 .00063464,-0.00028438,0.00267499,-0.00380764,0.00143858,-0.00126930,0.
 00052810,-0.00034628,0.01041138,-0.01530108,0.00737001,-0.00887814,0.0
 0057871,-0.00020995,0.00140578,0.00089004,-0.00017458,0.00093131,-0.00
 160821,0.00043017,-0.00093650,-0.00011983,-0.00000536,0.00038990,-0.00
 086528,0.00021034,0.00122259,-0.00081965,0.00030955,0.00190334,0.00050
 094,0.00001975,0.00204869,0.00014914,0.00009674,-0.00198497,0.00038221
 ,-0.00022250,-0.00189473,0.00080992,-0.00046155,-0.00185944,-0.0006761
 5,0.00005083,0.00034100,0.00071282,-0.00022157,-0.00072082,-0.00051256
 ,-0.00000970,-0.00002293,0.00026583,-0.00007832,-0.00126417,0.00096726
 ,-0.00033687,0.00390844,-0.00179390,0.00757993,-0.00001501,-0.00009008
 ,0.00002175,0.04126761,-0.39260277,0.09419893,-0.05537243,0.43442886,0
 .00004040,0.00004687,0.00011789,0.00044565,-0.00017676,0.00014430,-0.0
 0096840,0.00134282,0.00062561,0.00050446,-0.00032278,-0.00010014,-0.00
 319396,0.00475804,0.00582131,0.00204654,0.00046514,0.00188157,-0.00032
 077,-0.00030775,-0.00014508,-0.00032226,0.00026179,-0.00018467,0.00018
 577,0.00005654,0.00010445,-0.00002562,0.00017228,-0.00021535,-0.000263
 16,0.00021473,-0.00003941,-0.00045356,-0.00011743,0.00004573,-0.000484
 31,-0.00003614,-0.00005784,0.00047364,-0.00007665,0.00013359,0.0006487
 6,-0.00057061,-0.00043351,0.00043901,0.00015880,0.00000890,-0.00003059
 ,-0.00030964,-0.00017726,0.00018806,0.00003412,-0.00028712,0.00000957,
 -0.00007617,-0.00001006,0.00027958,-0.00022146,0.00010746,-0.01028904,
 0.03672057,-0.01012151,0.00000361,0.00001627,-0.00001418,-0.01272067,0
 .09390363,-0.10898744,0.01629124,-0.11220267,0.09832393,-0.00042910,-0
 .00071979,-0.00034247,-0.00250906,0.00005139,-0.00008249,0.00001306,-0
 .00539409,0.00364998,-0.00140521,-0.00058422,-0.00194106,-0.01067606,0
 .01756604,0.01663592,-0.00253490,0.00183705,-0.00032291,0.00148580,0.0
 0126130,-0.00026761,-0.00053347,-0.00090836,-0.00053918,-0.00107015,-0
 .00012325,-0.00000963,0.00055849,-0.00104150,0.00048228,0.00149700,-0.
 00096530,0.00037982,0.00244334,0.00050072,0.00013123,0.00260124,0.0002
 4015,0.00007368,-0.00247196,0.00038704,-0.00030585,0.00015264,0.000509
 64,0.00098691,-0.00238436,-0.00096234,0.00008275,0.00009609,-0.0006749
 4,0.00071333,-0.00035186,-0.00055488,0.00002092,0.00001151,0.00019581,
 -0.00005017,-0.00154212,0.00104456,-0.00040531,0.01843483,-0.00052732,
 -0.00823503,-0.00004680,-0.00019047,0.00004969,-0.17389617,0.09427605,
 0.11814888,0.00987964,0.01005850,0.00751606,0.16267758,0.00002866,0.00
 017481,-0.00002444,0.00048613,0.00030874,-0.00006788,0.00100784,-0.000
 20745,0.00089326,-0.00054887,-0.00006662,-0.00027675,-0.00571609,0.006
 23370,-0.00042338,0.00169141,-0.00159812,0.00214552,-0.00070841,0.0002
 9625,-0.00025469,0.00104879,0.00202182,0.00020350,-0.00012408,-0.00001
 005,0.00005339,-0.00001228,-0.00009451,0.00007785,0.00009256,-0.000057
 64,0.00000916,-0.00024163,0.00021282,-0.00009644,-0.00007502,0.0000963
 6,-0.00003472,0.00013231,0.00003347,0.00005145,-0.00091182,0.00037490,
 -0.00046718,0.00004565,0.00002617,0.00001470,-0.00054730,0.00121374,-0
 .00168256,0.00029521,0.00024194,-0.00000545,-0.00001555,0.00004468,-0.
 00002862,-0.00009547,0.00009468,-0.00001669,0.00508944,0.01207039,-0.0
 0474823,0.00001160,0.00002097,-0.00002143,0.08878625,-0.17535384,-0.11
 327647,0.02556247,-0.02260562,-0.02373353,-0.11528180,0.17652841,0.000
 60957,0.00039313,0.00024659,0.00092403,0.00003971,0.00016081,0.0022767
 3,0.00365828,-0.00107819,0.00050536,-0.00043433,0.00033341,0.00234793,
 -0.01029005,0.00335104,0.00063523,0.00023586,0.00128338,-0.00040953,-0
 .00049691,-0.00001064,0.00014525,0.00037356,0.00021021,0.00056424,0.00
 010382,0.00015323,-0.00033148,0.00034660,-0.00033595,-0.00069608,0.000
 38029,-0.00015157,-0.00091056,-0.00027362,-0.00009941,-0.00102603,-0.0
 0014852,-0.00002788,0.00094174,-0.00012292,0.00021193,-0.00019220,-0.0
 0008754,-0.00031361,0.00095939,0.00041324,-0.00000955,-0.00025001,-0.0
 0024428,-0.00074256,0.00018802,0.00026017,-0.00013725,-0.00000318,-0.0
 0009216,-0.00000583,0.00070323,-0.00044463,0.00020901,0.01675608,-0.02
 307005,-0.03210698,0.00001936,0.00008158,-0.00004105,0.11339071,-0.115
 11816,-0.22465751,-0.00077807,0.00282732,0.01345885,-0.13636974,0.1417
 0962,0.24009953\\0.00000237,0.00000030,-0.00000328,-0.00000323,0.00000
 198,0.00000198,0.00000209,-0.00000328,0.00000047,0.00000089,-0.0000009
 8,-0.00000019,0.00000044,-0.00000475,0.00000376,-0.00000238,-0.0000037
 6,0.00000624,-0.00000191,-0.00000020,0.00000248,-0.00000348,-0.0000016
 2,0.00000563,0.00000286,0.00000383,-0.00000694,0.00000151,0.00000260,-
 0.00000382,0.00000184,0.00000542,-0.00000754,-0.00000144,0.00000308,-0
 .00000101,-0.00000109,0.00000768,-0.00000508,-0.00000267,0.00000552,-0
 .00000177,0.00000404,-0.00000391,-0.00000144,-0.00000208,0.00000908,-0
 .00000545,-0.00000364,-0.00000481,0.00000866,-0.00000564,-0.00000091,0
 .00000760,0.00000504,0.00000315,-0.00000891,0.00000341,0.00000726,-0.0
 0001056,-0.00000037,-0.00000568,0.00000579,-0.00000475,0.00000616,0.00
 000025,0.00000145,-0.00000776,0.00000449,0.00000475,-0.00000754,0.0000
 0134,0.00000199,-0.00001088,0.00000730\\\@


 A COMPLEXITY IS MERELY A DISARRANGEMENT OF SIMPLICITIES.

                                    -- G. O. ABELL IN "EXPLORATION OF THE UNIVERSE"
 Job cpu time:       0 days  2 hours 38 minutes 39.9 seconds.
 File lengths (MBytes):  RWF=    933 Int=      0 D2E=      0 Chk=     14 Scr=      2
 Normal termination of Gaussian 09 at Mon Jul 29 17:16:29 2019.
